Title in water
21082
    1ACE     H1    1   3.022   2.872   2.591 -2.7008 -1.5170 -2.4737
    1ACE    CH3    2   2.962   2.945   2.647  0.2702  0.0655 -1.1523
    1ACE     H2    3   2.859   2.912   2.653 -0.6292  2.8351  0.2507
    1ACE     H3    4   2.971   3.038   2.591  0.4488  1.2183  0.6979
    1ACE      C    5   3.011   2.965   2.787  0.0690 -1.0944  0.1487
    1ACE      O    6   2.945   2.932   2.886  0.3482  0.1107  0.2232
    2ALA      N    7   3.136   3.015   2.797  0.6891  0.1364  0.4724
    2ALA      H    8   3.190   3.028   2.713  0.0511 -1.1316 -0.1602
    2ALA     CA    9   3.184   3.070   2.921  0.5015  0.6029  0.3784
    2ALA     HA   10   3.135   3.017   3.003 -2.7312 -0.4631 -1.9898
    2ALA     CB   11   3.333   3.042   2.942  0.8230 -0.1530  0.5336
    2ALA    HB1   12   3.357   2.936   2.946 -0.1354 -0.5686 -2.4576
    2ALA    HB2   13   3.388   3.086   2.859  2.2742  1.2409  2.1474
    2ALA    HB3   14   3.369   3.092   3.033  0.7054  0.6339  0.1592
    2ALA      C   15   3.144   3.216   2.944 -0.0851  0.0441  0.0340
    2ALA      O   16   3.141   3.296   2.852  0.0924 -0.3684  0.2602
    3NME      N   17   3.121   3.252   3.076  0.1551 -0.3762  0.0272
    3NME      H   18   3.127   3.173   3.138 -1.8818 -2.0435 -1.6906
    3NME      C   19   3.094   3.388   3.120 -0.0212 -0.5972 -0.1886
    3NME     H1   20   3.189   3.440   3.112  0.6466 -1.5911  0.8580
    3NME     H2   21   3.021   3.427   3.048 -0.4854 -0.9673  0.0761
    3NME     H3   22   3.060   3.393   3.223  2.1819 -2.8181  0.7632
    4TP3      O   23   5.928   0.098   1.396 -0.0332  0.2148 -0.2981
    4TP3     H1   24   5.931   0.095   1.301  1.9860 -1.2538 -0.2438
    4TP3     H2   25   6.018   0.080   1.424 -0.9745 -1.6346  1.9023
    5TP3      O   26   0.523   5.724   1.544  0.3667 -0.2417  0.3634
    5TP3     H1   27   0.531   5.640   1.500 -1.5038 -0.1105 -0.3096
    5TP3     H2   28   0.612   5.761   1.541  1.0953 -1.9166  0.1785
    6TP3      O   29   5.886   5.784   1.073  0.6943 -0.9136  0.3592
    6TP3     H1   30   5.803   5.757   1.033  0.9797 -1.4577  0.1230
    6TP3     H2   31   5.860   5.830   1.153  0.1044  0.6865 -0.7243
    7TP3      O   32   1.266   2.289   0.713 -0.4593 -0.6522  0.4722
    7TP3     H1   33   1.236   2.201   0.690 -0.2554 -0.9247  1.2131
    7TP3     H2   34   1.352   2.275   0.754  0.3693  0.0467 -0.9201
    8TP3      O   35   1.124   0.893   0.718 -0.0233 -0.0949  0.6384
    8TP3     H1   36   1.045   0.910   0.770 -0.8606  0.1591 -0.6471
    8TP3     H2   37   1.133   0.798   0.719 -0.5299 -0.1502  0.5629
    9TP3      O   38   1.500   0.277   1.306 -0.0812 -0.2179 -0.0205
    9TP3     H1   39   1.546   0.312   1.383 -0.7190  0.0915  0.2263
    9TP3     H2   40   1.561   0.290   1.234 -0.9418  3.0691 -0.2922
   10TP3      O   41   1.886   0.600   5.703  0.4866 -0.2455 -0.0037
   10TP3     H1   42   1.831   0.677   5.718  1.6984  0.3610  1.6657
   10TP3     H2   43   1.972   0.625   5.738  0.9197 -2.3343  0.5546
   11TP3      O   44   0.225   1.482   1.476  0.3755  0.4185 -0.8217
   11TP3     H1   45   0.142   1.495   1.430  0.2267  1.9038 -0.1935
   11TP3     H2   46   0.252   1.570   1.502  1.7594 -0.1231 -0.3337
   12TP3      O   47   5.996   5.691   1.937  0.3867 -0.3639  0.0280
   12TP3     H1   48   5.909   5.701   1.900 -0.1166 -2.5148  0.4907
   12TP3     H2   49   6.023   5.603   1.913  2.6979  0.4089 -0.5404
   13TP3      O   50   1.634   5.716   0.505 -1.0715  0.0329 -0.1938
   13TP3     H1   51   1.636   5.723   0.410 -1.3143 -1.4411 -0.3306
   13TP3     H2   52   1.724   5.733   0.533 -0.4957 -1.6882 -0.8827
   14TP3      O   53   1.122   2.146   1.557  0.0852  0.4845  0.0523
   14TP3     H1   54   1.193   2.211   1.564  1.5624 -0.5854 -3.2482
   14TP3     H2   55   1.153   2.071   1.608  2.6434 -0.8806 -3.1876
   15TP3      O   56   0.726   1.282   1.210  0.0303 -0.9566  0.0286
   15TP3     H1   57   0.754   1.366   1.246 -4.3713  0.1537  1.5213
   15TP3     H2   58   0.725   1.296   1.115 -0.1102  0.5504  0.2256
   16TP3      O   59   1.716   2.358   1.090  0.0387  1.4082  0.1104
   16TP3     H1   60   1.796   2.348   1.142 -0.3122  0.3460  0.4768
   16TP3     H2   61   1.711   2.452   1.071  2.0455  1.3477 -1.0044
   17TP3      O   62   0.254   5.724   2.034 -0.0522  0.1783  0.1414
   17TP3     H1   63   0.160   5.710   2.022  0.1163 -0.0086 -1.0951
   17TP3     H2   64   0.295   5.679   1.960  1.0336  0.0981  0.7576
   18TP3      O   65   1.981   0.410   1.220  1.0882  0.3555 -0.4718
   18TP3     H1   66   1.989   0.472   1.293 -0.5693 -1.8160  1.7356
   18TP3     H2   67   2.021   0.329   1.253 -1.1387 -1.1638 -1.2606
   19TP3      O   68   5.982   1.895   0.328 -0.3557  0.6161 -0.2690
   19TP3     H1   69   6.019   1.905   0.415 -0.2162 -1.6948  0.0182
   19TP3     H2   70   5.937   1.978   0.311 -0.5046  1.0906  2.0528
   20TP3      O   71   1.217   1.536   1.572 -0.4050  0.8632 -0.2322
   20TP3     H1   72   1.176   1.450   1.565  0.6732  0.3927 -0.9965
   20TP3     H2   73   1.306   1.524   1.537 -0.4327  2.4249 -0.9266
   21TP3      O   74   0.233   1.104   0.314 -0.3667 -0.2817 -0.0268
   21TP3     H1   75   0.234   1.091   0.219  0.8042 -2.8929  0.2441
   21TP3     H2   76   0.251   1.197   0.326 -2.4301  0.5210 -2.3430
   22TP3      O   77   0.284   1.229   0.760  0.6622  0.0297  0.1118
   22TP3     H1   78   0.263   1.136   0.754  0.5492  0.0819 -0.3199
   22TP3     H2   79   0.305   1.255   0.671  0.8881  0.3729  0.2635
   23TP3      O   80   0.137   2.747   0.367 -0.2565 -0.3445 -0.0838
   23TP3     H1   81   0.074   2.747   0.294  0.8566  0.7029 -1.0958
   23TP3     H2   82   0.131   2.836   0.404 -2.1502 -1.3796  2.3844
   24TP3      O   83   1.169   5.940   5.575 -0.0093  0.2557 -0.1297
   24TP3     H1   84   1.226   5.919   5.649 -0.5632  0.2874  0.3130
   24TP3     H2   85   1.174   5.864   5.518 -0.9259 -0.5280  0.7920
   25TP3      O   86   2.297   5.870   1.420 -0.1967 -0.4817  0.2745
   25TP3     H1   87   2.315   5.961   1.397  0.2658 -0.6284  0.0313
   25TP3     H2   88   2.202   5.862   1.416 -0.2587  0.0797  0.6526
   26TP3      O   89   1.427   1.446   0.811  0.2734 -0.0596  0.0797
   26TP3     H1   90   1.478   1.366   0.804 -0.4138 -0.5747  0.8414
   26TP3     H2   91   1.339   1.421   0.784  0.2858  0.7002 -0.7155
   27TP3      O   92   2.369   1.918   0.460 -0.4217  0.2924  0.2738
   27TP3     H1   93   2.372   1.824   0.478 -1.4072 -0.2731 -2.1125
   27TP3     H2   94   2.441   1.933   0.397 -2.1327  0.4493 -1.7699
   28TP3      O   95   0.338   1.521   4.950 -0.3715 -0.1532  0.0145
   28TP3     H1   96   0.407   1.588   4.949  0.8491 -1.3407 -1.7159
   28TP3     H2   97   0.289   1.536   4.870 -1.2367 -0.2297  0.5154
   29TP3      O   98   2.327   5.935   0.719  0.1324 -0.4730 -0.2893
   29TP3     H1   99   2.321   5.840   0.722  0.6796 -0.4846  0.5162
   29TP3     H2  100   2.420   5.954   0.733  0.1837  0.1478 -1.3540
   30TP3      O  101   1.960   5.726   0.390  0.3347 -0.7698 -0.3470
   30TP3     H1  102   1.940   5.656   0.452 -0.4919  0.0691  0.3574
   30TP3     H2  103   2.033   5.774   0.431  0.7834 -1.1113 -0.7437
   31TP3      O  104   0.021   1.501   1.780 -0.1832 -0.4664 -0.3753
   31TP3     H1  105   0.043   1.532   1.868 -0.5968  1.7896 -1.0221
   31TP3     H2  106   0.078   1.550   1.721 -0.9264 -0.8855 -1.4792
   32TP3      O  107   0.524   1.843   0.717 -0.5574 -0.6394 -0.0496
   32TP3     H1  108   0.549   1.869   0.629  1.0522  1.6293  0.9710
   32TP3     H2  109   0.542   1.920   0.771 -1.2880 -1.9990  2.3075
   33TP3      O  110   1.137   1.203   0.946 -0.0231  0.1207 -0.3134
   33TP3     H1  111   1.138   1.284   0.997  0.6747 -1.5485  2.5951
   33TP3     H2  112   1.224   1.166   0.957 -0.1455 -0.7826 -2.0541
   34TP3      O  113   0.820   5.433   0.229  0.0232  0.0877  0.6174
   34TP3     H1  114   0.747   5.495   0.221 -0.7123 -0.8561 -0.3110
   34TP3     H2  115   0.797   5.379   0.304 -0.5176 -0.5379  0.0194
   35TP3      O  116   0.115   0.600   1.089  0.3347 -0.5419 -0.4643
   35TP3     H1  117   0.089   0.514   1.055 -1.0148  0.3354 -1.7756
   35TP3     H2  118   0.135   0.584   1.181 -2.3921 -1.8579  0.0176
   36TP3      O  119   2.148   0.819   0.481  0.2259  0.3263  0.3786
   36TP3     H1  120   2.169   0.880   0.551  0.2331  0.0192  0.6443
   36TP3     H2  121   2.143   0.734   0.524 -1.2566  0.3306  0.2859
   37TP3      O  122   0.704   1.937   1.499 -0.1117 -0.5398 -0.2948
   37TP3     H1  123   0.742   2.007   1.551 -1.2760  0.0979 -0.2703
   37TP3     H2  124   0.660   1.881   1.563 -0.6061 -0.3653 -0.4824
   38TP3      O  125   5.958   0.232   0.562 -0.0014 -0.4028 -0.3996
   38TP3     H1  126   5.864   0.213   0.556 -0.1923 -0.0824  1.1931
   38TP3     H2  127   5.991   0.216   0.473 -1.5512 -0.5306 -0.9881
   39TP3      O  128   1.570   0.777   1.471 -0.7634  0.3679  0.1782
   39TP3     H1  129   1.488   0.739   1.440 -0.1428 -1.5207  0.7356
   39TP3     H2  130   1.579   0.745   1.561 -0.0513  1.6407  0.5940
   40TP3      O  131   1.947   0.875   0.859  0.2133 -0.8537 -0.1373
   40TP3     H1  132   1.948   0.920   0.943  3.0815 -1.7164  0.4218
   40TP3     H2  133   1.854   0.864   0.838 -0.6458  2.9288  0.8889
   41TP3      O  134   5.991   5.867   0.683 -0.1618 -0.3207 -0.0470
   41TP3     H1  135   6.054   5.826   0.742 -0.0906  1.5712  1.2681
   41TP3     H2  136   5.906   5.856   0.727 -0.3043 -0.1263 -0.2695
   42TP3      O  137   2.044   0.385   0.409  0.0872 -0.8580  0.0808
   42TP3     H1  138   2.052   0.392   0.314 -0.8291  1.2186  0.1140
   42TP3     H2  139   2.113   0.442   0.443 -0.6190 -0.3155  0.6226
   43TP3      O  140   1.755   1.776  -0.007  0.7318  0.2871  0.0079
   43TP3     H1  141   1.757   1.870  -0.026  0.1417  0.2336 -0.3624
   43TP3     H2  142   1.835   1.759   0.042  0.5607  1.0950  0.5841
   44TP3      O  143   0.679   0.640   1.455  0.2309 -0.6626 -0.2954
   44TP3     H1  144   0.661   0.548   1.475 -0.8643 -0.5518 -0.7200
   44TP3     H2  145   0.737   0.637   1.379 -0.4271 -1.0000 -0.7948
   45TP3      O  146   0.398   0.308   2.104  0.9053  0.3690  0.5485
   45TP3     H1  147   0.422   0.237   2.164 -1.3331  0.9141  2.2211
   45TP3     H2  148   0.447   0.384   2.136  2.3000 -0.0628 -0.4514
   46TP3      O  149   0.302   0.724   0.914 -0.1978  0.3901 -0.0432
   46TP3     H1  150   0.367   0.766   0.970  0.7356 -0.4014 -0.5045
   46TP3     H2  151   0.228   0.705   0.972  0.3422  0.5078  0.6864
   47TP3      O  152   0.409   0.143   1.399  0.1395 -0.1595  0.1163
   47TP3     H1  153   0.318   0.134   1.425 -0.2271  1.9324 -0.2601
   47TP3     H2  154   0.430   0.235   1.417  2.1199 -0.5346 -0.0043
   48TP3      O  155   1.322   1.070   0.263  0.4889  0.7817 -0.6826
   48TP3     H1  156   1.260   1.052   0.333  1.8095 -1.2888  0.0421
   48TP3     H2  157   1.396   1.011   0.280  2.2464  2.4371 -2.0501
   49TP3      O  158   0.126   0.644   0.510 -0.6083  0.2123  0.1420
   49TP3     H1  159   0.091   0.670   0.424  1.0418 -0.9356 -0.9413
   49TP3     H2  160   0.101   0.715   0.568 -0.8763  1.5583 -1.5280
   50TP3      O  161   0.152   1.259   1.223 -0.4424 -0.1715  0.1993
   50TP3     H1  162   0.189   1.246   1.310  1.1087  1.2747 -0.1822
   50TP3     H2  163   0.196   1.338   1.190 -1.9405  0.0684 -1.3867
   51TP3      O  164   1.259   0.082   0.154  0.4772 -0.0231  0.0845
   51TP3     H1  165   1.235   0.002   0.199 -1.2686  0.6764  0.4483
   51TP3     H2  166   1.206   0.082   0.074  0.8660  0.4988 -0.1834
   52TP3      O  167   1.632   5.755   2.398  0.1076 -0.0932 -0.0174
   52TP3     H1  168   1.562   5.709   2.353  2.2662 -2.6159 -1.0884
   52TP3     H2  169   1.588   5.819   2.454 -3.0030 -1.9613 -0.1458
   53TP3      O  170   1.643   1.180   5.765 -0.5444  0.2857  0.0847
   53TP3     H1  171   1.726   1.227   5.763  0.4297 -1.3527 -1.7596
   53TP3     H2  172   1.632   1.156   5.856  0.0412  2.1068  0.6837
   54TP3      O  173   0.359   0.479   0.814  0.3971  1.0910 -0.4755
   54TP3     H1  174   0.347   0.573   0.821 -3.8420  0.6206  1.6748
   54TP3     H2  175   0.278   0.447   0.774  0.4688 -1.8343  1.4179
   55TP3      O  176   1.415   1.976   5.430 -0.4055  0.9035  0.2434
   55TP3     H1  177   1.493   1.946   5.385 -0.9278  1.9202 -1.4327
   55TP3     H2  178   1.410   1.922   5.509  0.3106 -1.2567 -1.1058
   56TP3      O  179   0.944   1.932   0.809 -0.3351 -0.4321 -0.3016
   56TP3     H1  180   0.899   2.013   0.834  0.5524 -0.5147  1.8015
   56TP3     H2  181   0.873   1.869   0.795 -0.9703  0.0338  0.6660
   57TP3      O  182   1.668   0.910   0.891  0.2736  0.7142  0.9529
   57TP3     H1  183   1.658   0.935   0.983  1.2223  2.0271  0.7263
   57TP3     H2  184   1.580   0.917   0.854  0.0601  1.1772  1.5350
   58TP3      O  185   1.491   1.292   1.688  0.1863  0.2715  0.2852
   58TP3     H1  186   1.541   1.250   1.758  0.0179 -1.2211 -0.4682
   58TP3     H2  187   1.482   1.225   1.621  0.1293  1.6032 -1.0831
   59TP3      O  188   5.419   1.583   5.900  0.0327  0.2348 -0.0301
   59TP3     H1  189   5.499   1.615   5.857  1.0716  1.3476  2.5223
   59TP3     H2  190   5.363   1.660   5.909  0.3114  0.2999  1.4894
   60TP3      O  191   1.792   1.137   1.548 -0.2028  0.1812 -0.5001
   60TP3     H1  192   1.848   1.085   1.606  0.5555  0.1251 -1.2736
   60TP3     H2  193   1.703   1.122   1.582  0.2780  0.7646  1.1180
   61TP3      O  194   0.743   0.792   2.158 -0.0495 -0.3059  0.6105
   61TP3     H1  195   0.780   0.874   2.127  2.6848 -1.2076  1.2385
   61TP3     H2  196   0.746   0.799   2.253  0.3561 -1.1753  0.6720
   62TP3      O  197   1.101   1.920   5.985 -0.3259 -0.0784 -0.4511
   62TP3     H1  198   1.065   1.924   5.897  1.6847  2.4368 -1.2765
   62TP3     H2  199   1.102   2.011   6.015  0.0485 -0.7492  1.7561
   63TP3      O  200  -0.007   5.541   1.234 -0.5297 -0.3843  0.0706
   63TP3     H1  201  -0.022   5.448   1.217 -2.5734 -0.3771  1.4441
   63TP3     H2  202   0.059   5.542   1.303 -1.0416 -0.8511  0.5751
   64TP3      O  203   0.992   1.774   5.237  0.5743 -0.5070 -0.0785
   64TP3     H1  204   1.060   1.829   5.200  0.7451 -0.5769  0.1324
   64TP3     H2  205   0.910   1.819   5.214  0.5359 -1.5722 -2.2975
   65TP3      O  206   0.457   1.598   5.655 -0.8578 -0.2244  0.1888
   65TP3     H1  207   0.418   1.667   5.603 -0.8837 -0.8387 -0.6286
   65TP3     H2  208   0.532   1.639   5.698  0.1084 -0.0705 -1.5667
   66TP3      O  209   1.494   5.986   5.949  0.2778 -0.2367 -0.2998
   66TP3     H1  210   1.429   6.049   5.919 -1.5741 -3.1121 -3.0406
   66TP3     H2  211   1.453   5.943   6.024  0.2395 -0.1459 -0.2691
   67TP3      O  212   0.113   2.124   1.179 -0.0271  0.5360  0.3503
   67TP3     H1  213   0.163   2.174   1.114 -0.3957  1.4999  0.7904
   67TP3     H2  214   0.036   2.092   1.131  0.5934 -0.2781 -0.1260
   68TP3      O  215   0.560   1.541   1.031  0.1869 -0.4991 -0.1195
   68TP3     H1  216   0.652   1.563   1.039  0.0938  1.1867 -2.7449
   68TP3     H2  217   0.551   1.503   0.944 -1.5522 -0.9674  0.2160
   69TP3      O  218   0.030   0.180   5.925  0.1647 -0.0790 -0.2631
   69TP3     H1  219   0.115   0.165   5.968  1.5132 -0.3625 -2.8391
   69TP3     H2  220   0.015   0.273   5.935  1.7963  0.3543 -1.4298
   70TP3      O  221   1.857   0.121   2.384  0.1303  0.0941 -0.1575
   70TP3     H1  222   1.878   0.028   2.379 -0.6402 -0.2082  1.5118
   70TP3     H2  223   1.771   0.128   2.342  0.1255  0.0280 -0.1596
   71TP3      O  224   0.948   0.594   0.095 -0.4122 -0.1649  0.5994
   71TP3     H1  225   0.888   0.528   0.127  0.4889 -2.1005 -1.4005
   71TP3     H2  226   0.949   0.581  -0.000  0.3544  2.2777  0.1994
   72TP3      O  227   0.848   5.891   0.915 -0.8826  0.0434  0.2449
   72TP3     H1  228   0.928   5.841   0.930  0.4620  2.0072 -0.0712
   72TP3     H2  229   0.837   5.944   0.993 -0.2288  1.8800 -0.8509
   73TP3      O  230   0.573   1.075   2.002  0.1830 -0.2673 -0.1051
   73TP3     H1  231   0.666   1.057   2.009  0.1306 -0.7823 -0.7380
   73TP3     H2  232   0.551   1.117   2.086  0.0822 -4.0729  1.9812
   74TP3      O  233   1.256   0.093   1.089  0.5388  0.1909 -0.1388
   74TP3     H1  234   1.267   0.132   1.002  2.8208 -0.0174  0.0083
   74TP3     H2  235   1.232   0.002   1.071  0.6579  0.2369 -0.5305
   75TP3      O  236   0.934   1.052   0.851 -0.4535  0.1300  0.9770
   75TP3     H1  237   1.014   1.095   0.881 -0.2326 -0.0193  0.5980
   75TP3     H2  238   0.890   1.118   0.798  1.1706 -0.9041 -1.8680
   76TP3      O  239   0.887   5.427   1.117  0.0857 -0.1287 -0.2175
   76TP3     H1  240   0.896   5.351   1.059  1.4244 -1.1770  1.2551
   76TP3     H2  241   0.825   5.485   1.073 -2.4269 -2.8735 -0.6035
   77TP3      O  242   5.442   1.163   4.845  0.8083 -0.1370  0.1020
   77TP3     H1  243   5.466   1.251   4.815  2.3596 -0.6857 -0.3785
   77TP3     H2  244   5.373   1.177   4.909  1.0723  1.4378  0.0726
   78TP3      O  245   1.206   1.119   5.604  0.6402  0.7856 -0.0330
   78TP3     H1  246   1.159   1.063   5.541  1.0493 -0.1004  0.4233
   78TP3     H2  247   1.290   1.074   5.616  1.6257  2.3410 -0.8393
   79TP3      O  248   0.246   0.294   5.675 -0.0047 -0.1649 -0.0265
   79TP3     H1  249   0.199   0.376   5.689  0.1973 -0.2504  1.2692
   79TP3     H2  250   0.183   0.238   5.629 -0.2037  0.6433 -0.7505
   80TP3      O  251   1.937   0.150   1.731  0.1370  0.6751  0.4483
   80TP3     H1  252   2.018   0.102   1.713  0.6699  1.4594  0.6526
   80TP3     H2  253   1.932   0.153   1.827 -0.8033 -0.4320  0.4558
   81TP3      O  254   1.466   0.691   0.749  0.3604  0.3164  0.1465
   81TP3     H1  255   1.420   0.613   0.782 -0.4630  0.2805 -1.0199
   81TP3     H2  256   1.557   0.663   0.738 -0.1122 -0.8175 -1.2155
   82TP3      O  257   1.025   1.501   1.329 -0.5189  0.4693 -0.0649
   82TP3     H1  258   1.096   1.552   1.292 -0.5677  0.9994  0.5543
   82TP3     H2  259   0.970   1.565   1.374 -0.1921 -0.1854  1.3510
   83TP3      O  260   1.173   0.064   5.867 -0.2435  0.2192  0.0255
   83TP3     H1  261   1.105   0.055   5.800  0.2452 -0.1124 -0.4362
   83TP3     H2  262   1.239   0.121   5.827 -0.5202  1.0047  0.6912
   84TP3      O  263   2.911   0.998   0.161 -0.3209 -0.0617 -0.0914
   84TP3     H1  264   2.933   0.907   0.141 -2.7966 -0.2894 -2.3069
   84TP3     H2  265   2.903   1.040   0.075 -0.9627  1.7989  0.8190
   85TP3      O  266   0.396   1.291   5.400  0.2636 -0.5311  0.0693
   85TP3     H1  267   0.394   1.203   5.438 -1.2001 -0.8037 -0.5689
   85TP3     H2  268   0.332   1.340   5.452  2.4557  0.7559  1.6976
   86TP3      O  269   5.485   0.168   1.907  0.0589 -0.2381 -0.1238
   86TP3     H1  270   5.426   0.109   1.953  1.2910 -1.0911  0.4209
   86TP3     H2  271   5.436   0.196   1.830 -0.5393 -2.0177 -0.4378
   87TP3      O  272   0.368   5.581   0.797 -0.2894  0.0104  0.0993
   87TP3     H1  273   0.305   5.563   0.727 -2.1734  1.3297  1.3709
   87TP3     H2  274   0.426   5.647   0.761  0.6965 -1.5059 -1.2319
   88TP3      O  275   1.090   0.247   1.266 -0.2596 -0.0437 -0.1825
   88TP3     H1  276   1.123   0.185   1.201 -0.9690 -0.4053 -0.2075
   88TP3     H2  277   0.995   0.248   1.252 -0.3369  0.4444  0.3479
   89TP3      O  278   5.104   0.090   1.090 -0.1712  0.5667  0.0985
   89TP3     H1  279   5.143   0.028   1.152  2.3855  0.9929 -0.9607
   89TP3     H2  280   5.026   0.044   1.057  0.1387 -0.9400  1.3124
   90TP3      O  281   1.166   1.415   0.750 -0.2622 -0.1377  0.1276
   90TP3     H1  282   1.109   1.339   0.760 -0.9835  0.3982  0.1063
   90TP3     H2  283   1.158   1.463   0.833  0.4128 -0.2291  0.2533
   91TP3      O  284   1.147   5.518   0.382 -0.3516 -0.6778 -0.1507
   91TP3     H1  285   1.169   5.431   0.416 -2.8025 -1.0623  0.6392
   91TP3     H2  286   1.110   5.564   0.457  0.6740  1.0200 -0.6146
   92TP3      O  287   2.063   1.697   1.073 -0.0970  0.6718  0.3545
   92TP3     H1  288   2.039   1.618   1.121 -0.5511  0.6608  0.1204
   92TP3     H2  289   1.993   1.707   1.008  0.4133  0.7743 -0.1918
   93TP3      O  290   5.937   1.254  -0.020  0.4952 -0.2383 -0.3360
   93TP3     H1  291   5.969   1.341   0.005 -0.1931  0.6876 -2.3853
   93TP3     H2  292   5.993   1.193   0.028  2.1020  1.3315 -0.0847
   94TP3      O  293   1.626   0.831   0.243 -0.5141 -0.4077  0.0085
   94TP3     H1  294   1.561   0.833   0.313  0.2074  2.0187  0.7136
   94TP3     H2  295   1.710   0.821   0.288  0.0206  1.8626 -0.3598
   95TP3      O  296   1.330   0.704   5.826 -0.0450 -0.5707 -0.6126
   95TP3     H1  297   1.267   0.648   5.872 -0.4774 -0.5133 -1.1271
   95TP3     H2  298   1.276   0.755   5.765  0.3306  0.4525 -0.1119
   96TP3      O  299   0.403   0.900   1.872 -0.0101  0.5383 -0.3544
   96TP3     H1  300   0.415   0.894   1.777 -0.7841  2.7797 -0.6443
   96TP3     H2  301   0.477   0.954   1.902 -0.2018  0.4893  0.2093
   97TP3      O  302   1.670   0.195   1.994  0.0194 -0.0059  0.2800
   97TP3     H1  303   1.765   0.197   1.985 -0.0314  0.8244 -0.1860
   97TP3     H2  304   1.654   0.159   2.081  0.6861 -3.0602 -0.7177
   98TP3      O  305   0.559  -0.018   0.910 -0.6936  0.3695  0.0030
   98TP3     H1  306   0.599   0.061   0.947 -0.8628 -0.3768  1.9199
   98TP3     H2  307   0.594  -0.023   0.821 -0.2935  2.3157  0.0045
   99TP3      O  308   1.447   1.661   1.335 -0.2149 -0.2827  0.2843
   99TP3     H1  309   1.518   1.673   1.397 -1.2672  1.0712  1.2961
   99TP3     H2  310   1.395   1.741   1.342 -2.3247 -1.5739  0.2484
  100TP3      O  311   0.688   0.198   0.797  0.2143  0.1400  0.3269
  100TP3     H1  312   0.655   0.284   0.770  1.4485  0.5899  0.1826
  100TP3     H2  313   0.692   0.148   0.716  1.3121  0.5897  0.0891
  101TP3      O  314   2.674   0.997   0.852  0.1508 -0.6934  0.1935
  101TP3     H1  315   2.748   1.057   0.850 -0.9664  0.7225 -1.2792
  101TP3     H2  316   2.691   0.940   0.928  2.1017  0.3516  0.6027
  102TP3      O  317   0.284   0.557   1.586  0.4881 -0.5863 -0.0866
  102TP3     H1  318   0.265   0.508   1.666  1.3040  0.6235  0.8885
  102TP3     H2  319   0.198   0.583   1.553  0.1075 -1.6715  0.0167
  103TP3      O  320   1.181   0.055   0.718 -0.1063  0.1164 -0.2204
  103TP3     H1  321   1.182   0.150   0.734  0.5980  0.1061 -0.2083
  103TP3     H2  322   1.268   0.025   0.744 -0.9302 -0.8448  1.6604
  104TP3      O  323   0.124   5.971   0.148 -0.0603  0.1894  0.1885
  104TP3     H1  324   0.208   5.983   0.104 -0.3164 -0.2057 -0.4205
  104TP3     H2  325   0.091   5.887   0.114  0.4281 -0.9109  2.2429
  105TP3      O  326   0.892   0.767   1.218 -0.2491 -0.1964 -0.0690
  105TP3     H1  327   0.906   0.838   1.280 -0.3590 -0.8592  0.7254
  105TP3     H2  328   0.875   0.811   1.135  0.8579  0.6871  0.1522
  106TP3      O  329   1.655   0.645   1.121 -0.2722  0.4357  0.6550
  106TP3     H1  330   1.694   0.712   1.177 -0.6252  1.0600  0.1631
  106TP3     H2  331   1.572   0.682   1.092  0.9371  1.1967 -2.2382
  107TP3      O  332   0.164   1.478   0.879 -0.0243 -0.4758 -0.3767
  107TP3     H1  333   0.148   1.416   0.809 -0.2600 -0.9772  0.1096
  107TP3     H2  334   0.077   1.496   0.916  0.0270  0.2401 -0.5958
  108TP3      O  335   1.039   0.838   5.813  0.5673 -0.1159  0.5369
  108TP3     H1  336   1.108   0.905   5.818 -1.6231  2.4463 -0.6005
  108TP3     H2  337   0.985   0.854   5.891 -1.9635  2.0589 -1.4310
  109TP3      O  338   5.275   0.464   0.629  0.2341 -0.3477 -0.0040
  109TP3     H1  339   5.216   0.451   0.555  0.4106 -0.6462 -0.0901
  109TP3     H2  340   5.220   0.451   0.706  0.2950 -1.1045 -0.0844
  110TP3      O  341   1.322   0.685   0.335 -0.1542  0.0576 -0.1940
  110TP3     H1  342   1.274   0.713   0.413  0.0242 -2.1197  0.7692
  110TP3     H2  343   1.271   0.722   0.262 -0.3162  2.1452  0.8982
  111TP3      O  344   1.418   1.588   0.329 -0.2200  0.0372 -0.0986
  111TP3     H1  345   1.379   1.636   0.255  1.3492  0.9087 -0.4172
  111TP3     H2  346   1.503   1.631   0.342  0.2438 -1.2023  1.1308
  112TP3      O  347   1.256   1.352   0.478  1.0027 -0.0063 -0.7830
  112TP3     H1  348   1.211   1.406   0.543  2.5019  1.3541 -0.7847
  112TP3     H2  349   1.235   1.262   0.502 -1.1802  0.5431 -0.4556
  113TP3      O  350   5.595   1.815   0.912 -0.0123 -0.3012 -0.2928
  113TP3     H1  351   5.549   1.848   0.989 -0.6038  0.6096 -0.9986
  113TP3     H2  352   5.644   1.739   0.943  0.0274  0.2398  1.0371
  114TP3      O  353   5.557   0.241   1.557  0.0362 -0.1936 -0.2187
  114TP3     H1  354   5.646   0.236   1.594  0.1734  0.4121 -0.4570
  114TP3     H2  355   5.549   0.162   1.504  0.2631 -0.4862  0.1838
  115TP3      O  356   1.579   0.039   2.235 -0.1498  0.2050 -0.5524
  115TP3     H1  357   1.560  -0.002   2.320  1.1885  0.3276 -0.1669
  115TP3     H2  358   1.497   0.080   2.209 -0.4093  0.7288  1.0103
  116TP3      O  359   1.045   0.264   2.002  1.1403  0.3299 -0.1296
  116TP3     H1  360   0.965   0.316   1.990 -0.0948 -1.7306 -1.4683
  116TP3     H2  361   1.042   0.239   2.094  0.1979  0.2439 -0.1675
  117TP3      O  362   0.728   5.530   2.396  0.0930  0.0458  0.1223
  117TP3     H1  363   0.698   5.495   2.480 -0.7475 -0.8826 -0.5311
  117TP3     H2  364   0.802   5.474   2.373  2.1564  2.0608  1.5266
  118TP3      O  365   0.678   5.677   1.097  0.8024 -0.2792  0.1342
  118TP3     H1  366   0.702   5.770   1.095  0.5461 -0.2178 -0.2298
  118TP3     H2  367   0.657   5.660   1.188  4.2805 -0.8629  0.9788
  119TP3      O  368   1.180   5.799   0.991  0.4523  0.3142 -0.1307
  119TP3     H1  369   1.272   5.777   0.975  0.0578 -1.0233 -0.6952
  119TP3     H2  370   1.137   5.784   0.906 -0.7659 -1.8125  0.7919
  120TP3      O  371   1.470   0.899   0.050 -0.0104 -0.1545  0.2572
  120TP3     H1  372   1.443   0.809   0.029  0.2075  0.1490 -1.4849
  120TP3     H2  373   1.539   0.889   0.115 -0.3931 -1.2083  0.5250
  121TP3      O  374   5.477   5.522   0.879 -0.3345 -0.6518 -0.3008
  121TP3     H1  375   5.420   5.516   0.955 -1.0068 -0.5377 -0.7886
  121TP3     H2  376   5.422   5.561   0.811  0.0013 -1.5376 -1.1001
  122TP3      O  377   5.895   0.402   1.367 -0.0468 -0.0596 -0.0629
  122TP3     H1  378   5.975   0.413   1.316 -0.2995 -1.5572 -0.8675
  122TP3     H2  379   5.865   0.314   1.344 -1.5126  0.1832  0.8063
  123TP3      O  380   0.300   0.036   0.986  0.1882 -0.3338  0.2806
  123TP3     H1  381   0.234   0.032   0.916  2.5802  0.4393 -2.1938
  123TP3     H2  382   0.381   0.008   0.943  1.7431 -0.1072  2.8848
  124TP3      O  383   0.940   0.918   1.506 -0.1785 -0.0427 -0.8421
  124TP3     H1  384   0.871   0.984   1.512 -0.1840 -0.1716  3.0245
  124TP3     H2  385   1.016   0.957   1.549  1.0271 -1.2091 -1.8247
  125TP3      O  386   1.234   5.762   1.318 -0.2928 -0.0955 -0.4612
  125TP3     H1  387   1.287   5.840   1.302 -0.7047  0.6024  1.3651
  125TP3     H2  388   1.161   5.769   1.256  0.7445 -0.1142 -1.7140
  126TP3      O  389   1.585   0.283   0.289  0.3134  0.0587  0.1522
  126TP3     H1  390   1.522   0.325   0.231 -1.9245 -1.5097  1.2605
  126TP3     H2  391   1.608   0.201   0.244 -0.0393 -0.3211  0.6524
  127TP3      O  392   0.621   0.616   1.856 -0.4867 -0.4939  0.5609
  127TP3     H1  393   0.555   0.670   1.813  0.2001  0.8967  1.1961
  127TP3     H2  394   0.703   0.639   1.812 -0.4592 -2.7100 -0.6962
  128TP3      O  395   1.373   1.903   1.188  0.1323 -0.4984  0.4171
  128TP3     H1  396   1.349   1.932   1.100  1.3515  1.7059  0.7387
  128TP3     H2  397   1.444   1.962   1.214 -1.5926  0.3747  3.6916
  129TP3      O  398   1.792   1.008   1.129 -0.6866  0.0714  0.2419
  129TP3     H1  399   1.878   1.050   1.125 -1.2061  1.0722 -1.1517
  129TP3     H2  400   1.804   0.935   1.191  0.7250  1.1347  1.2950
  130TP3      O  401   0.109   1.536   2.063  0.3482  0.2502  0.1978
  130TP3     H1  402   0.156   1.609   2.023  1.3939 -1.0739 -1.1197
  130TP3     H2  403   0.142   1.532   2.152  1.6167  0.3293 -0.2405
  131TP3      O  404   3.149   0.651   5.751  0.2458 -0.0736  0.4989
  131TP3     H1  405   3.089   0.681   5.683 -0.1009 -0.1422  0.7670
  131TP3     H2  406   3.157   0.726   5.810  2.6185  0.9481 -0.9615
  132TP3      O  407   1.383   1.742   0.823 -0.1629 -0.0027  0.0232
  132TP3     H1  408   1.393   1.787   0.739 -0.7155  0.3428  0.1346
  132TP3     H2  409   1.423   1.656   0.809  2.8530  1.2112  0.4310
  133TP3      O  410   0.487   0.645   0.130  0.0726 -0.1317  0.5049
  133TP3     H1  411   0.403   0.610   0.158  1.5503 -3.0419  1.6781
  133TP3     H2  412   0.527   0.680   0.209  0.0446  1.1741 -0.0298
  134TP3      O  413   0.257   0.970   0.708  0.1720  0.5748  0.2170
  134TP3     H1  414   0.167   0.962   0.676 -0.4909 -0.6322  2.2003
  134TP3     H2  415   0.265   0.901   0.774  2.3615  1.0740  0.5399
  135TP3      O  416   0.431   0.734   1.323 -0.4688  0.4874  0.0806
  135TP3     H1  417   0.489   0.702   1.392 -0.5245  2.4840  1.1145
  135TP3     H2  418   0.349   0.754   1.367 -0.8392  0.8491 -0.7450
  136TP3      O  419   0.346   0.396   1.820 -0.1648 -0.4127  0.6477
  136TP3     H1  420   0.329   0.358   1.906  1.8161  1.2509  1.8670
  136TP3     H2  421   0.433   0.434   1.827 -0.6950  1.4300 -1.5157
  137TP3      O  422   0.190   0.788   1.978  0.0156  0.3603 -0.7590
  137TP3     H1  423   0.263   0.805   1.919 -1.0565  1.7278 -1.7459
  137TP3     H2  424   0.176   0.870   2.024 -0.5136 -0.0667 -0.1386
  138TP3      O  425   0.580   0.504   1.203 -0.2079  0.8230  0.1062
  138TP3     H1  426   0.551   0.595   1.202 -0.3721  0.7811  0.5663
  138TP3     H2  427   0.513   0.457   1.154 -0.3065  0.9000  0.1651
  139TP3      O  428   0.003   1.226   1.713 -0.1567  0.1522 -0.6118
  139TP3     H1  429   0.059   1.199   1.639 -1.6540  0.7061 -2.0187
  139TP3     H2  430   0.011   1.321   1.716 -0.4217  0.1674 -0.3368
  140TP3      O  431   0.758   1.707   0.767  0.3262 -0.4891 -1.0555
  140TP3     H1  432   0.790   1.632   0.717  0.6398 -0.1312 -1.3980
  140TP3     H2  433   0.666   1.716   0.741  0.1151 -1.1313 -0.5456
  141TP3      O  434   0.639   5.654   0.663  0.5459  0.2815 -0.1391
  141TP3     H1  435   0.654   5.749   0.666 -1.4716  0.7003 -1.3367
  141TP3     H2  436   0.714   5.619   0.614  1.0482  1.3213 -0.1416
  142TP3      O  437   5.448   0.844   0.516 -0.8044 -0.6882  0.6968
  142TP3     H1  438   5.440   0.838   0.611 -0.6717 -1.1925  0.6795
  142TP3     H2  439   5.487   0.930   0.500 -0.9176 -0.5632  1.0927
  143TP3      O  440   0.005   1.290   0.598 -0.9905 -0.1033 -0.0777
  143TP3     H1  441  -0.063   1.301   0.664  0.9025  1.2342  1.7527
  143TP3     H2  442   0.073   1.238   0.641 -0.7035 -1.2285 -1.7828
  144TP3      O  443   1.221   1.271   1.760 -0.2541  0.4802 -0.4015
  144TP3     H1  444   1.316   1.281   1.752 -0.2686  1.1580  0.1525
  144TP3     H2  445   1.189   1.277   1.670  0.3435 -1.2267 -0.7589
  145TP3      O  446   0.326   0.646   5.862 -0.3205  0.4942 -0.3365
  145TP3     H1  447   0.386   0.624   5.933 -1.9664  0.5120  1.1227
  145TP3     H2  448   0.364   0.604   5.785  0.2018 -1.7912  1.0451
  146TP3      O  449   1.925   0.479   0.955 -0.0129  0.1189 -0.2106
  146TP3     H1  450   1.997   0.457   0.896 -1.3432 -1.4636 -1.3348
  146TP3     H2  451   1.944   0.433   1.036  2.1155  2.7438  0.9514
  147TP3      O  452   0.844   2.797   2.420 -0.4496 -0.3079  0.1749
  147TP3     H1  453   0.802   2.743   2.486 -1.2743  1.3288  1.0424
  147TP3     H2  454   0.907   2.738   2.378 -2.0959 -2.2408  0.2597
  148TP3      O  455   0.835   0.028   2.080 -0.3942  0.1287 -0.0236
  148TP3     H1  456   0.751   0.040   2.036 -0.7545  0.5858  0.7797
  148TP3     H2  457   0.899   0.020   2.008 -1.2582 -1.4144 -0.6735
  149TP3      O  458   1.140   1.507   1.895 -0.5520  0.2026  0.3674
  149TP3     H1  459   1.189   1.448   1.838  0.5499  1.6810 -0.2920
  149TP3     H2  460   1.140   1.590   1.849 -1.9176  0.7826  1.3419
  150TP3      O  461   5.739   5.629   5.872 -0.6454  0.4815 -0.1287
  150TP3     H1  462   5.666   5.631   5.811  0.3983 -0.0713 -1.4442
  150TP3     H2  463   5.816   5.647   5.818  0.2835  0.2489  1.0729
  151TP3      O  464   5.524   1.561   1.474  0.7019 -0.3899  0.0871
  151TP3     H1  465   5.474   1.552   1.392  0.8703 -0.3964 -0.0155
  151TP3     H2  466   5.498   1.485   1.526  0.2238 -0.1268  0.2391
  152TP3      O  467   1.573   0.600   0.430  0.9330  0.2968  0.2261
  152TP3     H1  468   1.549   0.651   0.508  3.9174  0.3866  1.2279
  152TP3     H2  469   1.503   0.618   0.367 -1.4790  0.4562  2.7265
  153TP3      O  470   1.913   1.797   5.429  0.4765  0.2341 -0.5009
  153TP3     H1  471   1.942   1.771   5.341  0.0142  0.3837 -0.7044
  153TP3     H2  472   1.946   1.729   5.487 -0.1622 -0.4667 -0.9402
  154TP3      O  473   2.559   1.239   0.974  0.1067  0.1576 -0.2410
  154TP3     H1  474   2.633   1.278   1.019 -0.0920 -0.5414  0.7404
  154TP3     H2  475   2.598   1.187   0.904  0.4196  1.3068 -0.9452
  155TP3      O  476   1.586   1.812   0.977 -0.4945 -0.4969 -0.3149
  155TP3     H1  477   1.562   1.867   1.051 -0.2591  1.0275 -1.3417
  155TP3     H2  478   1.503   1.789   0.936 -0.5241  0.1209 -0.6031
  156TP3      O  479   0.719   2.064   1.765  0.0978 -0.2533  0.0638
  156TP3     H1  480   0.643   2.061   1.823  0.9331 -0.1320  1.2097
  156TP3     H2  481   0.787   2.017   1.813  1.0678  0.6006 -0.4376
  157TP3      O  482   1.113   1.291   1.485 -0.4270 -0.6563 -0.7632
  157TP3     H1  483   1.150   1.218   1.436 -1.8080 -1.6557 -0.3673
  157TP3     H2  484   1.075   1.348   1.418 -1.7002 -1.6669 -0.9172
  158TP3      O  485   1.395   5.890   5.283  0.2229  0.4662  0.6664
  158TP3     H1  486   1.456   5.906   5.355  1.2503 -1.3958  0.2740
  158TP3     H2  487   1.437   5.822   5.231 -1.3891  0.3971 -0.6224
  159TP3      O  488   1.413   0.598   0.093 -0.1280 -0.0203  0.2353
  159TP3     H1  489   1.419   0.603   0.188  0.0756 -1.9307  0.3644
  159TP3     H2  490   1.339   0.538   0.077  0.5334 -0.6065 -0.7657
  160TP3      O  491   1.731   2.406   5.704  0.0410 -0.2693 -0.5402
  160TP3     H1  492   1.749   2.409   5.610 -0.1961 -0.6823 -0.5995
  160TP3     H2  493   1.641   2.375   5.711 -0.0521  0.0772 -0.1857
  161TP3      O  494   4.574   1.648   1.177  0.1965 -0.6596  0.4424
  161TP3     H1  495   4.618   1.589   1.116  2.9985  2.5194 -0.9417
  161TP3     H2  496   4.643   1.674   1.239 -1.1998  0.3138  1.6836
  162TP3      O  497   1.855   0.160   0.804 -0.5859  0.5484  0.2433
  162TP3     H1  498   1.909   0.234   0.775  1.2022 -0.0845  1.7403
  162TP3     H2  499   1.852   0.102   0.728  0.5400  0.7814 -0.0021
  163TP3      O  500   0.339   0.341   1.086 -0.3410  0.0822  0.1263
  163TP3     H1  501   0.319   0.379   1.000  1.9151 -0.0264 -0.4870
  163TP3     H2  502   0.310   0.250   1.079 -0.2128  0.0854 -0.5123
  164TP3      O  503   0.585   1.706   5.317  0.0089  0.1942  0.1216
  164TP3     H1  504   0.643   1.739   5.248  0.2746  0.3581  0.4207
  164TP3     H2  505   0.644   1.682   5.389 -0.3360  0.9297  0.6621
  165TP3      O  506   1.195   1.642   1.160  0.0221 -0.3112 -0.3424
  165TP3     H1  507   1.273   1.697   1.160 -0.3378  0.2559 -1.8430
  165TP3     H2  508   1.164   1.644   1.069 -2.3654  0.3581  0.4102
  166TP3      O  509   2.030   5.853   1.396 -0.3471 -0.7029  0.3068
  166TP3     H1  510   2.016   5.787   1.464 -0.7437 -1.1416 -0.1840
  166TP3     H2  511   1.977   5.822   1.323  0.6296 -0.6213 -0.4547
  167TP3      O  512   5.719   0.113   0.577  0.1053  0.0176  0.5986
  167TP3     H1  513   5.734   0.031   0.625  1.1627 -1.8724 -2.6742
  167TP3     H2  514   5.624   0.123   0.578 -0.1451 -1.8435  0.2676
  168TP3      O  515   1.582   0.905   4.903 -0.6722 -0.6162 -0.3325
  168TP3     H1  516   1.603   0.974   4.966  0.0106 -0.2115 -0.9895
  168TP3     H2  517   1.600   0.944   4.818 -1.8970 -1.0509 -0.8165
  169TP3      O  518   1.209   1.134   1.297 -0.2914  0.5550 -0.5413
  169TP3     H1  519   1.275   1.164   1.235 -0.1866  1.6286  0.0685
  169TP3     H2  520   1.127   1.133   1.247 -0.1077  0.8548 -0.8507
  170TP3      O  521   1.628   1.132   0.031  0.0836  0.9578 -0.0190
  170TP3     H1  522   1.634   1.168   0.119 -2.7013  1.7807 -0.0585
  170TP3     H2  523   1.560   1.065   0.037 -0.3210  1.1834 -1.5680
  171TP3      O  524   1.407   0.751   1.099  0.2550  0.1831 -0.0612
  171TP3     H1  525   1.340   0.740   1.031 -0.1425  0.1606  0.3339
  171TP3     H2  526   1.373   0.703   1.174  1.8662 -2.0196 -0.6275
  172TP3      O  527   0.544   1.314   0.790 -0.2395  0.3272 -0.4039
  172TP3     H1  528   0.449   1.302   0.792 -0.1403 -0.3454  0.5809
  172TP3     H2  529   0.577   1.255   0.857  0.8171  1.1398 -0.1905
  173TP3      O  530   2.721   1.315   1.609 -0.3148 -0.2654 -0.0919
  173TP3     H1  531   2.749   1.388   1.664 -0.7394 -1.5770  1.9833
  173TP3     H2  532   2.629   1.303   1.631 -0.6583 -0.4740 -1.5602
  174TP3      O  533   0.817   0.565   0.798 -0.0248  0.5498 -0.1795
  174TP3     H1  534   0.733   0.558   0.753 -0.8234  0.9797  1.1923
  174TP3     H2  535   0.820   0.487   0.855  1.4065 -0.5126 -1.6149
  175TP3      O  536   1.684   0.549   0.868  0.1673  0.0636  0.5531
  175TP3     H1  537   1.660   0.592   0.950 -1.3306 -1.9730  1.2583
  175TP3     H2  538   1.773   0.516   0.883  1.0722  2.1522  0.2377
  176TP3      O  539   0.552   1.564   0.595 -0.3315  0.4210 -0.0536
  176TP3     H1  540   0.463   1.599   0.602 -0.1879  1.6113 -3.0575
  176TP3     H2  541   0.548   1.481   0.643 -3.3162  0.0034 -0.8229
  177TP3      O  542   2.317   5.691   1.769  0.4131  0.5291 -0.2635
  177TP3     H1  543   2.226   5.699   1.797  1.2156  0.1072  2.7794
  177TP3     H2  544   2.325   5.600   1.741 -0.3129  0.8539 -1.6312
  178TP3      O  545   5.705   1.415   0.434 -0.1463 -1.1163  0.1167
  178TP3     H1  546   5.754   1.364   0.370 -0.9334  0.0577 -1.4981
  178TP3     H2  547   5.642   1.466   0.382 -1.0697 -0.3644  1.8525
  179TP3      O  548   0.622   1.751   1.672 -0.2571 -0.2489 -0.0989
  179TP3     H1  549   0.581   1.665   1.677 -0.0636 -0.3694 -0.5740
  179TP3     H2  550   0.600   1.792   1.756 -0.2167 -0.8185  0.1970
  180TP3      O  551   5.325   0.420   3.392 -0.0426  0.0279  0.1240
  180TP3     H1  552   5.365   0.451   3.312  0.9845 -0.9355  0.2475
  180TP3     H2  553   5.249   0.478   3.405  0.1922  0.6412 -1.1358
  181TP3      O  554   5.708   0.390   0.923 -0.0282  0.1102 -0.2884
  181TP3     H1  555   5.699   0.442   0.843  0.4592  1.5916  0.5626
  181TP3     H2  556   5.656   0.438   0.988  0.8816 -0.1588  0.6720
  182TP3      O  557   0.912   0.462   1.491 -0.4813  0.1820  0.2437
  182TP3     H1  558   0.990   0.487   1.540  1.5003 -1.7970 -1.6566
  182TP3     H2  559   0.879   0.384   1.536  0.7144 -0.9980 -0.8178
  183TP3      O  560   0.770   1.447   0.342 -0.2485  0.5951  0.2543
  183TP3     H1  561   0.767   1.541   0.330 -1.1475  0.7555  1.4812
  183TP3     H2  562   0.859   1.422   0.316 -0.1172  1.7091 -0.4344
  184TP3      O  563   1.133   1.095   0.531 -0.6842 -0.3203  0.7802
  184TP3     H1  564   1.042   1.121   0.517 -1.0943  0.1978  3.6896
  184TP3     H2  565   1.128   1.024   0.595  0.9375 -0.2872  0.9798
  185TP3      O  566   0.053   2.307   1.867 -0.8141  0.4029  0.2776
  185TP3     H1  567   0.024   2.217   1.852  3.7268 -1.3442  0.4904
  185TP3     H2  568   0.060   2.344   1.779 -2.0664  0.3607  0.1445
  186TP3      O  569   2.138   1.492   0.782 -0.0442  0.1613 -0.4761
  186TP3     H1  570   2.096   1.456   0.860 -1.6208  0.6669 -1.0428
  186TP3     H2  571   2.229   1.504   0.807 -0.4436  0.0056  1.1754
  187TP3      O  572   0.962   1.095   1.199 -0.2567 -0.5105  0.1690
  187TP3     H1  573   0.930   1.114   1.110  0.5768  3.6677  0.5387
  187TP3     H2  574   0.883   1.091   1.252 -0.6476  1.2212 -0.2067
  188TP3      O  575   1.206   0.857   1.689  0.7799  0.8387 -0.2162
  188TP3     H1  576   1.259   0.912   1.630  0.8958  1.4471  0.4428
  188TP3     H2  577   1.175   0.786   1.633  2.4726  0.3333 -0.5813
  189TP3      O  578   0.550   2.543   1.628 -0.4416 -0.0864 -0.1693
  189TP3     H1  579   0.522   2.530   1.538 -2.4070  0.4358  0.3134
  189TP3     H2  580   0.468   2.552   1.678  0.5742 -0.7754  1.7331
  190TP3      O  581   1.314   0.443   1.183  0.5849  0.3193 -0.6832
  190TP3     H1  582   1.377   0.389   1.231  1.0445  2.9985  2.0269
  190TP3     H2  583   1.228   0.406   1.207  0.8795  0.8013  1.2332
  191TP3      O  584   0.589   0.419   0.674 -1.0752 -0.0996  0.3311
  191TP3     H1  585   0.508   0.431   0.724 -0.8304  0.2664  0.6410
  191TP3     H2  586   0.559   0.407   0.584 -1.4479  0.4991  0.3700
  192TP3      O  587   1.152   1.634   0.468 -0.6198 -0.3748  0.6624
  192TP3     H1  588   1.199   1.678   0.539  0.3915 -0.6597  0.1802
  192TP3     H2  589   1.220   1.605   0.408 -1.4517 -0.2449 -0.3787
  193TP3      O  590   1.180   0.576   1.612  0.3763 -0.1257 -0.3855
  193TP3     H1  591   1.241   0.505   1.631  0.5653  0.1875  0.2241
  193TP3     H2  592   1.141   0.597   1.698  1.2379  1.3291 -0.3347
  194TP3      O  593   1.212   0.466   1.900 -0.4008  0.1114  0.3168
  194TP3     H1  594   1.218   0.481   1.994  1.5993 -2.2905  0.6739
  194TP3     H2  595   1.141   0.402   1.890 -0.5700  0.3167  0.1851
  195TP3      O  596   0.325   1.963   0.037 -0.1275 -0.1490 -0.3947
  195TP3     H1  597   0.313   1.939  -0.055 -2.5982  0.5592 -0.3161
  195TP3     H2  598   0.254   2.024   0.055  1.4736  1.2885  1.4721
  196TP3      O  599   5.676   0.943   0.931 -0.4958  0.7312  0.0149
  196TP3     H1  600   5.710   0.864   0.972  0.0466  0.0093 -1.7404
  196TP3     H2  601   5.684   1.010   0.998 -0.2103 -0.5249  1.2744
  197TP3      O  602   0.030   0.224   0.283  0.2485  0.1937  0.1743
  197TP3     H1  603   0.073   0.306   0.256 -1.2854  1.2704  0.8772
  197TP3     H2  604   0.078   0.156   0.236  2.2633  1.3821  0.3894
  198TP3      O  605   1.705   1.635   5.756  0.4047 -0.4430 -0.1848
  198TP3     H1  606   1.733   1.679   5.836  0.5179 -0.6081 -0.1344
  198TP3     H2  607   1.616   1.604   5.776  0.7507 -1.2316  0.1788
  199TP3      O  608   2.156   1.234   0.564 -0.3932  0.6545 -0.6606
  199TP3     H1  609   2.066   1.214   0.538 -0.5313 -0.3307  0.4997
  199TP3     H2  610   2.183   1.159   0.617  1.1294  0.9239 -1.0225
  200TP3      O  611   5.021   1.301   2.946  0.1055  0.0619  0.1965
  200TP3     H1  612   5.103   1.266   2.981 -0.3581  0.7734  2.1177
  200TP3     H2  613   5.000   1.375   3.003 -2.6642 -1.0305  0.7561
  201TP3      O  614   5.565   1.608   0.641 -0.4536 -0.0481  0.1150
  201TP3     H1  615   5.582   1.531   0.695 -1.0371 -0.4527 -0.2720
  201TP3     H2  616   5.584   1.682   0.699 -0.5654 -0.4765  0.7085
  202TP3      O  617   0.885   1.395   1.739 -0.7982 -0.7132  0.5437
  202TP3     H1  618   0.875   1.456   1.666 -1.0174  0.3633  1.4494
  202TP3     H2  619   0.978   1.399   1.761 -0.9695  0.0042  1.1833
  203TP3      O  620   1.912   5.472   0.553  0.6955 -0.3083  0.1040
  203TP3     H1  621   1.984   5.423   0.514 -0.2282 -2.4457  0.9211
  203TP3     H2  622   1.834   5.423   0.528 -0.2113  0.2836  1.6247
  204TP3      O  623   0.877   0.287   1.700  0.5965  0.4554  0.1636
  204TP3     H1  624   0.858   0.341   1.776  0.8204 -1.0401  1.3334
  204TP3     H2  625   0.851   0.198   1.726  2.3828 -0.4136 -0.8092
  205TP3      O  626   2.525   0.991   1.099  0.5883 -0.1297  0.2710
  205TP3     H1  627   2.611   0.981   1.140  0.5005  0.7121  0.6891
  205TP3     H2  628   2.514   1.086   1.090 -0.0642 -0.2509 -0.2803
  206TP3      O  629   0.464   1.085   1.491  0.1112  0.3958 -0.8301
  206TP3     H1  630   0.395   1.139   1.528 -0.4476 -1.0901  0.4234
  206TP3     H2  631   0.451   1.090   1.397 -2.7145 -1.0324 -0.6083
  207TP3      O  632   1.136   0.759   0.152 -0.5835  0.1499  0.2051
  207TP3     H1  633   1.069   0.695   0.132 -1.9882  1.4941  0.4131
  207TP3     H2  634   1.089   0.843   0.155  1.4166  1.4607 -1.6633
  208TP3      O  635   1.027   5.572   0.709 -0.4063 -0.1719  0.0419
  208TP3     H1  636   1.044   5.666   0.704  1.3444 -0.5130 -2.3556
  208TP3     H2  637   0.939   5.562   0.673 -0.8813  0.5674  0.9472
  209TP3      O  638   0.526   0.009   1.210 -0.4620  0.3230 -0.8575
  209TP3     H1  639   0.497   0.081   1.266  1.0310  0.1093  0.2543
  209TP3     H2  640   0.465   0.009   1.137 -0.9026  2.2754 -0.5295
  210TP3      O  641   1.063   1.484   0.083  0.0734  0.3399  0.6352
  210TP3     H1  642   1.067   1.454   0.174 -0.0748  1.5838  1.0740
  210TP3     H2  643   1.144   1.533   0.071 -0.6957  1.6590  0.6617
  211TP3      O  644   0.328   1.448   1.123 -0.1074  0.1523  0.0164
  211TP3     H1  645   0.277   1.458   1.043  0.8780 -0.8112 -0.7592
  211TP3     H2  646   0.413   1.488   1.102  0.6799 -1.4484  0.0427
  212TP3      O  647   2.418   5.967   0.374  0.3245 -0.2986 -0.1281
  212TP3     H1  648   2.347   5.919   0.333  1.3799 -1.9538 -0.1047
  212TP3     H2  649   2.469   5.901   0.420  1.3078  0.9817  0.7018
  213TP3      O  650   1.679   0.053   4.940 -0.3315 -0.0483  0.1890
  213TP3     H1  651   1.773   0.035   4.948 -0.2910 -1.7379 -2.5981
  213TP3     H2  652   1.674   0.148   4.927  0.8980  0.1646  1.0481
  214TP3      O  653   0.986   5.716   0.140 -0.1576  0.3242  0.1425
  214TP3     H1  654   0.898   5.718   0.176  0.0554  3.4817  0.8035
  214TP3     H2  655   1.016   5.626   0.153 -2.4738 -0.2741  1.8996
  215TP3      O  656   5.630   2.069   0.167 -0.1311  0.2568 -0.2797
  215TP3     H1  657   5.569   2.037   0.233  3.7622 -0.5372  3.4149
  215TP3     H2  658   5.607   2.162   0.156 -1.7618  0.0781  1.2002
  216TP3      O  659   1.612   1.225   0.287  0.2051 -0.4390 -0.0209
  216TP3     H1  660   1.671   1.158   0.322  3.0293  0.9547 -1.7590
  216TP3     H2  661   1.568   1.261   0.364 -0.0885 -3.0394  1.1197
  217TP3      O  662   0.808   5.762   1.543 -0.4914  0.0379 -0.3162
  217TP3     H1  663   0.889   5.794   1.582 -0.7156 -1.4214  1.4768
  217TP3     H2  664   0.837   5.703   1.473  0.0463 -1.2160  0.9286
  218TP3      O  665   5.632   1.697   2.064 -0.4081  0.6199  0.5532
  218TP3     H1  666   5.639   1.697   2.160 -0.5769 -0.7496  0.5903
  218TP3     H2  667   5.722   1.688   2.033 -0.4709 -0.4082  0.6334
  219TP3      O  668   0.302   0.805   2.496  0.6913 -0.1499  0.4149
  219TP3     H1  669   0.221   0.793   2.447  1.6471  0.3380 -1.4140
  219TP3     H2  670   0.280   0.786   2.587 -1.0567 -1.6713 -0.2899
  220TP3      O  671   0.583   1.448   2.404  0.2262  0.4814 -0.2735
  220TP3     H1  672   0.557   1.359   2.378  0.8164  0.4961 -0.9671
  220TP3     H2  673   0.614   1.439   2.494  3.4838 -0.7376 -1.3479
  221TP3      O  674   1.084   0.878   1.934 -0.0746  0.5134 -0.3199
  221TP3     H1  675   1.127   0.878   1.849 -0.2013  0.7022 -0.3849
  221TP3     H2  676   1.104   0.965   1.970  0.1994  0.3408 -0.0461
  222TP3      O  677   0.886   0.364   2.728  0.4949  0.5263  0.5224
  222TP3     H1  678   0.879   0.334   2.819  2.4966  0.7014  0.7755
  222TP3     H2  679   0.945   0.301   2.687  1.2990  1.6425 -0.0886
  223TP3      O  680   2.453   0.873   2.256 -0.2410 -0.2839 -0.4076
  223TP3     H1  681   2.410   0.885   2.341 -2.8726 -1.3050 -1.4672
  223TP3     H2  682   2.509   0.949   2.246 -1.2800  0.7900  1.4603
  224TP3      O  683   0.052   1.233   2.000  0.2344  0.1095 -0.1128
  224TP3     H1  684   0.060   1.328   2.003  0.9478  0.1112 -1.3311
  224TP3     H2  685   0.047   1.212   1.907  0.0967 -1.0571  0.1356
  225TP3      O  686   1.549   1.252   3.241 -0.0074  0.3825 -0.0868
  225TP3     H1  687   1.594   1.231   3.160  1.0278 -0.6257  0.7267
  225TP3     H2  688   1.476   1.189   3.245  0.1637  0.1856 -0.0555
  226TP3      O  689   1.043   0.911   2.334  0.5403 -0.9015  0.0780
  226TP3     H1  690   1.088   0.989   2.301  2.2166 -1.5068  0.8428
  226TP3     H2  691   1.030   0.856   2.256  2.2079 -1.2178 -0.0161
  227TP3      O  692   1.194   0.926   3.675 -0.2072 -0.5033  0.1324
  227TP3     H1  693   1.230   0.881   3.599  0.6501 -0.5069  0.5246
  227TP3     H2  694   1.206   0.865   3.748  0.3185  0.0621  0.5389
  228TP3      O  695   0.127   2.183   2.216 -0.1818  0.5483 -0.0682
  228TP3     H1  696   0.106   2.271   2.249  0.3524  0.6530  0.0067
  228TP3     H2  697   0.209   2.194   2.170 -0.6348  0.2790 -0.9581
  229TP3      O  698   2.342   1.313   3.590 -0.6419 -0.2327  0.0063
  229TP3     H1  699   2.425   1.314   3.638 -1.9815  0.7772  2.4506
  229TP3     H2  700   2.329   1.404   3.563 -0.8486 -0.4432 -0.6299
  230TP3      O  701   5.839   0.576   3.092  0.1544  0.2511  0.0178
  230TP3     H1  702   5.785   0.512   3.047 -0.0757 -0.6977  1.5461
  230TP3     H2  703   5.786   0.656   3.095 -1.2269 -0.6576  1.4700
  231TP3      O  704   1.212   5.309   3.525 -0.2970 -0.4152 -0.2920
  231TP3     H1  705   1.153   5.380   3.550 -2.6408 -1.5901 -2.0583
  231TP3     H2  706   1.207   5.247   3.598  0.0921  0.2412  0.3039
  232TP3      O  707   5.418   1.918   2.565 -0.6815 -0.3472 -0.1767
  232TP3     H1  708   5.490   1.858   2.585  0.7172  1.0629 -0.8256
  232TP3     H2  709   5.453   2.005   2.582 -2.2684  0.3799 -0.4349
  233TP3      O  710   0.839   1.851   3.141  0.0208 -0.3909 -0.4149
  233TP3     H1  711   0.872   1.868   3.230  0.0013  0.0330 -0.4869
  233TP3     H2  712   0.908   1.798   3.100  1.1766  1.3972 -0.9284
  234TP3      O  713   5.909   1.245   2.367  0.2372  0.0884 -0.5395
  234TP3     H1  714   5.815   1.260   2.376  0.0076  0.0326 -2.3984
  234TP3     H2  715   5.945   1.332   2.346  0.1501 -0.3137 -2.6136
  235TP3      O  716   1.221   1.529   3.510 -0.7385  0.1820 -0.3851
  235TP3     H1  717   1.285   1.506   3.577 -0.0867  0.8667 -0.7656
  235TP3     H2  718   1.146   1.472   3.528  1.3358 -3.5001 -2.3011
  236TP3      O  719   1.152   1.424   2.620  0.0533  0.0186  0.1265
  236TP3     H1  720   1.102   1.476   2.682 -1.8885  1.1565 -2.2137
  236TP3     H2  721   1.229   1.477   2.600 -0.6985  0.9161 -0.4359
  237TP3      O  722   0.135   1.064   2.397  0.5911 -0.2899 -0.1498
  237TP3     H1  723   0.183   1.043   2.477  1.3739  0.8047 -0.3190
  237TP3     H2  724   0.084   1.142   2.419  0.6736 -0.0881 -0.6573
  238TP3      O  725   0.973   0.529   3.393 -0.6558 -1.0087 -0.4415
  238TP3     H1  726   0.976   0.593   3.465 -0.0019 -2.0316  0.4773
  238TP3     H2  727   0.942   0.449   3.434  0.2516 -1.7581 -1.1728
  239TP3      O  728   5.123   0.775   1.521 -0.5364  0.0590  0.4290
  239TP3     H1  729   5.215   0.765   1.500 -0.3191  0.6475  1.0726
  239TP3     H2  730   5.088   0.686   1.515 -0.2598  0.0248 -1.2226
  240TP3      O  731   1.870   2.119   2.100  0.0867 -0.1068  0.1314
  240TP3     H1  732   1.842   2.184   2.164  1.7208  0.3573  0.4208
  240TP3     H2  733   1.814   2.043   2.116 -0.3779  0.4632  1.2522
  241TP3      O  734   0.883   1.912   1.940  0.1326  1.2656  0.2883
  241TP3     H1  735   0.969   1.942   1.970 -0.9938  3.3252  1.8066
  241TP3     H2  736   0.837   1.889   2.021  0.1764 -2.8592 -0.6777
  242TP3      O  737   1.528   0.976   1.946 -0.3700  0.2115 -0.4436
  242TP3     H1  738   1.455   0.982   2.008 -0.1525  0.5836 -0.2226
  242TP3     H2  739   1.601   0.943   1.998  0.2882  2.0927 -0.0690
  243TP3      O  740   1.463   0.653   2.307  0.5481 -0.1152  0.1312
  243TP3     H1  741   1.530   0.590   2.336  0.1395 -0.1841  0.9598
  243TP3     H2  742   1.407   0.602   2.248  1.1108 -0.1049 -0.4281
  244TP3      O  743   0.173   0.843   3.290 -0.3013  0.3225  0.0252
  244TP3     H1  744   0.227   0.769   3.263  0.4544  2.1114 -4.1515
  244TP3     H2  745   0.229   0.893   3.350  0.9001 -0.2642 -0.5739
  245TP3      O  746   0.829   0.440   1.964  0.1184  0.2967 -0.5904
  245TP3     H1  747   0.866   0.525   1.986 -0.2141  1.2498 -3.2859
  245TP3     H2  748   0.737   0.458   1.945 -0.6244 -1.1808  1.2694
  246TP3      O  749   0.473   0.389   2.725 -0.3789  0.7111  0.7382
  246TP3     H1  750   0.432   0.403   2.810  1.4208  0.7354  1.6376
  246TP3     H2  751   0.417   0.438   2.664 -1.6496  0.7617  1.8951
  247TP3      O  752   0.296   0.710   2.792 -0.3974  0.0995  0.4097
  247TP3     H1  753   0.270   0.620   2.773 -0.9930  0.3969 -0.2379
  247TP3     H2  754   0.267   0.725   2.882 -1.8695  0.1834 -0.0469
  248TP3      O  755   5.558   1.320   3.859 -0.0366  0.2823  0.3128
  248TP3     H1  756   5.502   1.382   3.906 -0.5338 -0.0320  0.1449
  248TP3     H2  757   5.627   1.298   3.921  1.9363  3.3130 -0.6097
  249TP3      O  758   1.502   0.923   2.221  0.2680  0.1148 -0.1670
  249TP3     H1  759   1.518   0.842   2.269 -1.0172 -0.7041 -1.0317
  249TP3     H2  760   1.556   0.988   2.264  0.6104 -0.9993  1.1540
  250TP3      O  761   1.463   1.524   3.335 -0.2844 -0.1972  0.4341
  250TP3     H1  762   1.444   1.430   3.325 -2.8430  0.1329  1.4817
  250TP3     H2  763   1.405   1.553   3.405  0.3026  2.2460  0.0026
  251TP3      O  764   0.338   0.003   3.527  0.3302  0.5775 -0.5606
  251TP3     H1  765   0.357  -0.024   3.617 -2.2173 -0.9608 -0.3959
  251TP3     H2  766   0.275   0.075   3.537 -1.8912 -1.1936 -1.0248
  252TP3      O  767   1.160   1.862   2.540 -0.4509  0.0399 -0.4230
  252TP3     H1  768   1.129   1.951   2.555  1.2975  0.8292 -1.2546
  252TP3     H2  769   1.178   1.828   2.628 -0.6527  0.6689 -0.1366
  253TP3      O  770   1.508   1.910   1.965 -0.2139  0.1583 -0.5579
  253TP3     H1  771   1.515   2.006   1.971  0.4102  0.1660 -1.2174
  253TP3     H2  772   1.599   1.880   1.959 -0.0729 -0.7903  3.2792
  254TP3      O  773   0.085   0.103   0.796  1.2232  0.3759  0.0452
  254TP3     H1  774   0.040   0.145   0.722 -0.3428 -0.1015  0.6915
  254TP3     H2  775   0.068   0.010   0.784 -0.1554  0.3812  1.6777
  255TP3      O  776   2.515   1.247   3.373 -0.2171 -0.0849 -0.8987
  255TP3     H1  777   2.458   1.257   3.449 -0.0275  1.6279 -0.9329
  255TP3     H2  778   2.557   1.162   3.385 -2.2760 -1.0947 -0.5581
  256TP3      O  779   0.401   1.903   1.522  0.0276  0.0776  0.1057
  256TP3     H1  780   0.490   1.868   1.519 -0.7123 -1.9835  0.5160
  256TP3     H2  781   0.378   1.918   1.430  0.4073 -0.3943 -0.0682
  257TP3      O  782   1.241   0.730   2.757  0.7610  0.3081 -0.1624
  257TP3     H1  783   1.161   0.783   2.759  0.2439 -0.4355 -0.7917
  257TP3     H2  784   1.262   0.721   2.664 -0.0349 -1.8602 -0.1921
  258TP3      O  785   1.074   0.264   3.491  0.0531  0.9695  0.0261
  258TP3     H1  786   1.114   0.240   3.407  2.7287  0.5377  1.2959
  258TP3     H2  787   1.143   0.314   3.536 -0.9977  0.5124  2.2617
  259TP3      O  788   0.356   0.958   3.460  0.2818 -0.2126 -0.5023
  259TP3     H1  789   0.448   0.937   3.446  0.2721 -0.9305  0.3966
  259TP3     H2  790   0.357   1.027   3.526  0.2013  0.5099 -1.2419
  260TP3      O  791   1.296   0.330   3.039  0.7896 -0.1419  0.1007
  260TP3     H1  792   1.285   0.295   3.128 -1.4178  1.3900  0.5257
  260TP3     H2  793   1.265   0.420   3.046  0.7556  0.0634 -2.2162
  261TP3      O  794   0.985   1.265   2.492  0.2321  0.2514 -0.5728
  261TP3     H1  795   0.973   1.273   2.397 -0.6449  2.1627 -0.3718
  261TP3     H2  796   1.045   1.336   2.514 -0.3133  0.4283  0.4039
  262TP3      O  797   5.823   1.005   1.858  0.3620 -0.1437  0.6512
  262TP3     H1  798   5.865   1.007   1.944  1.0588 -0.4487  0.3258
  262TP3     H2  799   5.865   1.075   1.809  1.6522 -1.4504 -0.1907
  263TP3      O  800   0.365   1.404   3.447 -0.5321 -0.6003 -0.9240
  263TP3     H1  801   0.330   1.371   3.529  1.0330 -2.5928 -0.9596
  263TP3     H2  802   0.408   1.486   3.470 -1.0896 -0.5678  0.0176
  264TP3      O  803   1.248   0.796   2.492 -0.5076 -0.5756 -0.4303
  264TP3     H1  804   1.314   0.769   2.428  1.3130  0.6552  0.8081
  264TP3     H2  805   1.183   0.843   2.441  0.3895 -0.4833 -1.5313
  265TP3      O  806   1.601   0.266   4.508 -0.2916 -0.2712 -0.1641
  265TP3     H1  807   1.560   0.267   4.422  0.5594 -1.0059 -0.5958
  265TP3     H2  808   1.529   0.256   4.569 -0.8996  0.1910 -0.7922
  266TP3      O  809   1.580   1.661   1.765 -0.2612 -0.0590  0.3210
  266TP3     H1  810   1.584   1.663   1.860  1.2860 -0.1901  0.2821
  266TP3     H2  811   1.505   1.716   1.743 -0.9754 -0.4780  1.6178
  267TP3      O  812   0.807   5.569   2.726  0.6491 -0.2301 -0.7444
  267TP3     H1  813   0.892   5.540   2.693  2.5104  1.1683  2.3552
  267TP3     H2  814   0.824   5.657   2.761 -1.2190 -1.0106  2.6218
  268TP3      O  815   0.214   1.771   1.957 -0.4011 -0.0988  0.3202
  268TP3     H1  816   0.309   1.765   1.948 -0.3569 -0.1782  0.8227
  268TP3     H2  817   0.182   1.775   1.867 -0.1344 -3.0669  0.0053
  269TP3      O  818   0.663   2.266   2.017  0.6913 -0.2358  0.3504
  269TP3     H1  819   0.679   2.347   2.066  2.9306 -0.4588  0.0616
  269TP3     H2  820   0.674   2.291   1.925 -3.0447  0.0773 -0.1831
  270TP3      O  821   1.973   0.883   1.760 -0.5059  0.5194  0.6762
  270TP3     H1  822   2.026   0.929   1.695  2.4096 -1.1588  1.6498
  270TP3     H2  823   1.914   0.827   1.708  1.1136 -0.1014 -0.5680
  271TP3      O  824   1.511   1.586   2.325 -0.3899  0.0271 -0.2148
  271TP3     H1  825   1.503   1.679   2.346 -2.1935 -0.2324  0.3800
  271TP3     H2  826   1.564   1.550   2.396 -0.7456  0.3803  0.2321
  272TP3      O  827   5.581   1.412   2.484  0.6561 -0.0433  0.3349
  272TP3     H1  828   5.533   1.374   2.411  1.2199 -0.6784  0.2869
  272TP3     H2  829   5.619   1.492   2.448  1.1623 -0.4945 -0.1559
  273TP3      O  830   1.688   0.632   2.909 -0.0323 -0.2843 -0.0838
  273TP3     H1  831   1.653   0.544   2.927 -0.3672  0.0615  1.0233
  273TP3     H2  832   1.766   0.638   2.964  1.6984 -0.9436 -2.3309
  274TP3      O  833   0.667   1.223   3.581  0.1868 -0.6106 -0.2755
  274TP3     H1  834   0.753   1.261   3.595 -0.1102  0.5689 -1.4429
  274TP3     H2  835   0.636   1.263   3.499 -1.6631 -0.6394  0.3632
  275TP3      O  836   1.016   2.620   1.552  0.0711  0.5473 -0.2397
  275TP3     H1  837   1.039   2.679   1.624  0.6304  0.1313 -0.0707
  275TP3     H2  838   0.937   2.576   1.582 -0.0933  0.8803 -0.1760
  276TP3      O  839   5.581   0.039   3.880  0.1385 -1.1246 -0.6514
  276TP3     H1  840   5.520   0.045   3.954  1.3713 -2.5639  0.5548
  276TP3     H2  841   5.597  -0.055   3.870  0.5757 -0.9090 -2.2942
  277TP3      O  842   2.035   2.062   2.742  0.1672 -0.0418 -0.1641
  277TP3     H1  843   1.957   2.115   2.758  1.2367  1.7872 -0.6598
  277TP3     H2  844   2.095   2.086   2.813 -0.3000 -2.7972  1.2982
  278TP3      O  845   5.080   1.263   1.758 -0.0612  0.2319 -0.3010
  278TP3     H1  846   5.116   1.271   1.847 -0.4957  0.9947 -0.1863
  278TP3     H2  847   4.996   1.219   1.770  0.3237 -0.5653 -0.4523
  279TP3      O  848   1.577   0.186   2.640  0.3046 -0.3266 -0.3486
  279TP3     H1  849   1.560   0.273   2.603 -0.8346 -0.5898 -0.4817
  279TP3     H2  850   1.627   0.204   2.720 -0.2214  0.4961 -0.1813
  280TP3      O  851   0.181   1.654   3.411  0.2590  0.3968  0.1108
  280TP3     H1  852   0.246   1.714   3.374 -0.0374 -0.1963 -1.4261
  280TP3     H2  853   0.186   1.576   3.356  1.0596 -1.2955  2.4280
  281TP3      O  854   0.846   1.761   2.509 -0.2154  0.4764  0.0074
  281TP3     H1  855   0.811   1.760   2.598 -0.8331 -0.7709 -0.2369
  281TP3     H2  856   0.941   1.767   2.521 -0.0875 -2.1042  0.8424
  282TP3      O  857   5.665   1.563   2.783 -0.8703 -0.1854  0.4830
  282TP3     H1  858   5.635   1.617   2.857 -1.0272  1.0930 -0.4747
  282TP3     H2  859   5.724   1.500   2.822 -0.3450  0.9577  1.6138
  283TP3      O  860   2.431   5.606   3.240  0.2334  0.0997 -0.7214
  283TP3     H1  861   2.377   5.681   3.265  1.3594  0.6086  0.3303
  283TP3     H2  862   2.387   5.530   3.279 -0.2695  0.3768 -0.7468
  284TP3      O  863   5.571   0.881   1.741  0.2112 -0.1728  0.6720
  284TP3     H1  864   5.660   0.913   1.753  0.5680  0.9537 -3.3697
  284TP3     H2  865   5.579   0.785   1.744  1.4122 -0.0777  1.0177
  285TP3      O  866   1.260   1.286   3.880 -0.5415  0.1945 -0.6409
  285TP3     H1  867   1.345   1.271   3.921 -1.7742 -0.8328  1.7585
  285TP3     H2  868   1.219   1.353   3.935 -0.9777  1.3530 -2.3008
  286TP3      O  869   0.589   0.578   3.601  0.0954 -0.6289  0.0409
  286TP3     H1  870   0.575   0.670   3.624 -0.9957 -1.0719  1.2767
  286TP3     H2  871   0.631   0.540   3.678  1.2666 -1.0246 -0.7601
  287TP3      O  872   1.719   1.154   2.703  0.6832  0.6583 -0.6627
  287TP3     H1  873   1.779   1.199   2.643 -0.3663  3.1487 -0.0024
  287TP3     H2  874   1.632   1.174   2.668  0.1185  0.7855  0.7774
  288TP3      O  875   0.962   0.672   2.093  0.0364  0.3166 -0.4409
  288TP3     H1  876   1.008   0.741   2.045 -0.7005  1.1020 -0.0377
  288TP3     H2  877   0.877   0.710   2.115 -0.4386 -0.7683 -0.3246
  289TP3      O  878   1.540   0.395   2.885  0.4043 -0.2619  0.1550
  289TP3     H1  879   1.480   0.365   2.953  0.2782  0.1271  0.2150
  289TP3     H2  880   1.608   0.327   2.881 -0.4029 -1.0526 -0.3914
  290TP3      O  881   0.131   5.956   2.268  0.0800 -0.2456  0.3030
  290TP3     H1  882   0.190   5.885   2.291 -0.8107 -0.2892  2.7763
  290TP3     H2  883   0.126   5.954   2.172  2.9016 -1.1317  0.0915
  291TP3      O  884   2.201   2.217   2.260 -0.3051 -0.1657  0.5901
  291TP3     H1  885   2.153   2.275   2.202 -1.7467 -0.4674  1.4366
  291TP3     H2  886   2.254   2.162   2.202 -0.0275  1.0044 -0.2920
  292TP3      O  887   0.406   5.966   1.617 -0.4922  0.0149  0.9134
  292TP3     H1  888   0.439   5.878   1.599  1.0764  0.2297  2.4707
  292TP3     H2  889   0.410   6.011   1.533 -0.3217 -1.0769  0.3226
  293TP3      O  890   1.253   5.878   2.569  0.2997  0.3227 -0.4436
  293TP3     H1  891   1.280   5.925   2.648  0.3540 -3.3346  1.9192
  293TP3     H2  892   1.165   5.910   2.552  0.0750  0.8176  1.4302
  294TP3      O  893   0.732   0.541   3.255 -0.5572 -0.6394 -0.2017
  294TP3     H1  894   0.746   0.449   3.233  0.3545 -1.0401  1.8477
  294TP3     H2  895   0.816   0.570   3.291 -1.4444  0.4023  1.0978
  295TP3      O  896   1.209   1.832   2.812  0.2582  0.0228  0.3374
  295TP3     H1  897   1.178   1.905   2.866  0.9388 -1.0328  2.2629
  295TP3     H2  898   1.304   1.841   2.812  0.3059 -0.4481 -0.0258
  296TP3      O  899   0.843   1.045   2.079 -0.0533  0.1517 -0.0209
  296TP3     H1  900   0.848   1.084   1.991  0.1683 -0.2627 -0.1915
  296TP3     H2  901   0.899   1.101   2.133  0.6827 -0.2359 -0.3779
  297TP3      O  902   1.355   2.414   2.557 -0.1300  0.1108 -0.3635
  297TP3     H1  903   1.428   2.473   2.577 -1.4295  1.6194  0.1232
  297TP3     H2  904   1.282   2.448   2.608 -1.3984 -0.8862 -1.4446
  298TP3      O  905   0.563  -0.010   2.234 -0.2815  0.1382  0.1543
  298TP3     H1  906   0.505   0.050   2.280 -0.8934 -0.2462 -0.1096
  298TP3     H2  907   0.584   0.036   2.152  1.0671  0.9638  0.9227
  299TP3      O  908   5.103   1.078   3.420 -0.6742 -0.3735 -0.1787
  299TP3     H1  909   5.197   1.089   3.435 -0.7175  0.2317 -0.3280
  299TP3     H2  910   5.061   1.112   3.499 -0.8127  0.6674 -0.6832
  300TP3      O  911   0.536   0.244   2.424  0.6292 -0.3931 -0.0275
  300TP3     H1  912   0.622   0.263   2.387  0.5642 -0.5110 -0.2406
  300TP3     H2  913   0.508   0.326   2.464 -0.5412  0.6203 -2.6812
  301TP3      O  914   0.384   5.795   2.267  0.6292 -0.2959 -0.0513
  301TP3     H1  915   0.339   5.781   2.184  1.1911 -2.0452 -0.0949
  301TP3     H2  916   0.462   5.847   2.244 -0.2045  0.8973 -0.2846
  302TP3      O  917   1.268   5.480   3.171 -0.5211 -0.0595 -0.5333
  302TP3     H1  918   1.195   5.419   3.161 -1.4688  1.1549 -1.4208
  302TP3     H2  919   1.230   5.554   3.219 -0.6139  1.6707 -3.0815
  303TP3      O  920   2.045   1.422   3.665  0.7597  0.7175 -0.3738
  303TP3     H1  921   2.058   1.455   3.576 -0.2762 -1.8564 -1.5727
  303TP3     H2  922   2.071   1.330   3.660 -1.3270 -0.0387  1.4519
  304TP3      O  923   1.935   0.316   4.188 -0.1817  0.0692 -0.4689
  304TP3     H1  924   1.897   0.359   4.112  0.8203  0.5982 -0.6782
  304TP3     H2  925   1.983   0.241   4.152  1.1153  0.8737 -0.4881
  305TP3      O  926   2.446   1.048   2.734 -0.7444 -0.1639  0.2488
  305TP3     H1  927   2.495   0.966   2.742 -2.1031 -0.9989  0.2277
  305TP3     H2  928   2.371   1.037   2.792 -1.1780  0.8965 -0.0894
  306TP3      O  929   0.006   1.821   2.316 -0.4514  0.2408  0.2677
  306TP3     H1  930   0.095   1.818   2.279 -0.3203  0.1068  0.5891
  306TP3     H2  931   0.020   1.821   2.411 -0.7976  0.1737  0.3183
  307TP3      O  932   1.259   1.102   1.964  0.1543 -0.1148  0.3174
  307TP3     H1  933   1.312   1.163   2.015 -0.4291 -0.2435  1.1034
  307TP3     H2  934   1.242   1.147   1.882  1.2633  0.0298  0.1555
  308TP3      O  935   2.150   5.984   1.676  0.1693  0.2990 -0.8835
  308TP3     H1  936   2.122   5.917   1.739 -0.3632  1.6114  0.3316
  308TP3     H2  937   2.217   6.034   1.723  0.2337  0.9112 -1.6104
  309TP3      O  938   0.839   0.722   1.698  0.4786  0.4399  0.2499
  309TP3     H1  939   0.809   0.718   1.607 -1.3366  2.3513  0.6680
  309TP3     H2  940   0.882   0.808   1.705  0.2686  0.4727  1.2548
  310TP3      O  941   1.740   2.169   3.883 -0.0785 -0.7078  0.4100
  310TP3     H1  942   1.664   2.137   3.834  0.1551 -1.4960  0.5526
  310TP3     H2  943   1.813   2.116   3.851  0.4013 -0.0301  0.3529
  311TP3      O  944   0.892   1.374   3.293  0.7019 -0.2013  0.2960
  311TP3     H1  945   0.920   1.374   3.201  1.5890  0.0123  0.5626
  311TP3     H2  946   0.799   1.351   3.289  0.8422 -0.6585 -0.6186
  312TP3      O  947   1.917   2.547   3.990 -0.2476 -0.2001 -0.5002
  312TP3     H1  948   1.913   2.609   3.917  0.2680 -0.5174 -0.7965
  312TP3     H2  949   1.917   2.602   4.068 -2.1404  0.1197 -0.6742
  313TP3      O  950   0.762   0.862   2.407  0.7642  0.7832  0.2967
  313TP3     H1  951   0.743   0.800   2.477  2.0679 -0.2291 -0.1974
  313TP3     H2  952   0.827   0.921   2.444  1.3537  0.3288  0.0190
  314TP3      O  953   2.374   0.904   3.504 -0.4075 -0.1175 -0.0054
  314TP3     H1  954   2.375   0.998   3.491  0.5886 -0.1741 -0.3931
  314TP3     H2  955   2.369   0.893   3.599  1.8428  0.3580  0.2210
  315TP3      O  956   0.514   5.399   3.593  0.2813  0.0117  0.1596
  315TP3     H1  957   0.442   5.457   3.571 -1.0715 -1.7079 -0.1093
  315TP3     H2  958   0.496   5.371   3.683 -0.7404 -2.2467 -0.6728
  316TP3      O  959   1.632   0.992   3.122  0.1563  0.2518  0.9098
  316TP3     H1  960   1.585   0.952   3.195  1.5840  0.3336  1.9424
  316TP3     H2  961   1.621   0.931   3.049 -1.8559  0.4879  0.9627
  317TP3      O  962   0.804   1.546   1.514 -0.0665 -0.5338 -0.7741
  317TP3     H1  963   0.795   1.636   1.481  0.2969 -0.5190 -0.8370
  317TP3     H2  964   0.738   1.496   1.465  0.9346 -0.6500 -2.0665
  318TP3      O  965   0.484   0.888   2.938  0.2510 -0.2563  0.2935
  318TP3     H1  966   0.576   0.910   2.920  0.2309 -0.4697 -0.0816
  318TP3     H2  967   0.456   0.838   2.862  0.2637 -1.4954  1.0694
  319TP3      O  968   1.204   5.912   3.043 -0.1239  0.3078  0.5253
  319TP3     H1  969   1.146   5.978   3.081  1.6931  0.9053  2.4325
  319TP3     H2  970   1.207   5.934   2.950 -1.9164  1.0242  0.5974
  320TP3      O  971   0.720   1.744   2.754  0.2504  0.9552  0.0950
  320TP3     H1  972   0.722   1.808   2.825 -0.1223  1.5029 -0.3765
  320TP3     H2  973   0.638   1.762   2.708 -0.4509 -0.6130  0.6309
  321TP3      O  974   0.751   1.112   1.446  0.3389  0.5661  0.2499
  321TP3     H1  975   0.669   1.113   1.495  1.6170  2.0129  2.5276
  321TP3     H2  976   0.744   1.187   1.386 -1.0859 -1.0080 -1.6843
  322TP3      O  977   0.687   0.542   2.773 -0.2141  0.0930 -1.2592
  322TP3     H1  978   0.762   0.485   2.792  0.5657  1.4821 -0.0188
  322TP3     H2  979   0.614   0.481   2.759  0.7883 -1.2363 -0.8816
  323TP3      O  980   0.697   1.464   2.659 -0.9229 -0.3092 -0.8070
  323TP3     H1  981   0.645   1.544   2.668 -0.9994 -0.3330 -1.0426
  323TP3     H2  982   0.782   1.486   2.698  0.1609  0.9036 -3.6258
  324TP3      O  983   1.836   1.503   2.756 -0.1930 -0.1121 -0.4725
  324TP3     H1  984   1.761   1.552   2.721 -0.0458 -0.2316 -0.9621
  324TP3     H2  985   1.817   1.412   2.733 -0.2100 -0.2213 -0.0294
  325TP3      O  986   1.265   0.068   1.653 -0.0236 -0.1219  0.0491
  325TP3     H1  987   1.235   0.156   1.630  3.0682  1.4422  1.4038
  325TP3     H2  988   1.309   0.036   1.574  0.0248  0.1308 -0.0277
  326TP3      O  989   0.805   1.599   3.430 -0.0235 -0.7050 -0.4916
  326TP3     H1  990   0.805   1.561   3.518  0.0523  0.6827  0.1352
  326TP3     H2  991   0.843   1.531   3.375 -1.3224 -2.1382  0.2883
  327TP3      O  992   0.232   0.257   3.627  0.0387  0.0245  0.9464
  327TP3     H1  993   0.138   0.243   3.628 -0.1564  1.1668  2.1124
  327TP3     H2  994   0.242   0.348   3.599  0.9625 -0.8165 -1.7208
  328TP3      O  995   2.086   0.918   3.720 -0.0626  0.6012  0.0385
  328TP3     H1  996   2.151   0.875   3.776  1.5519  0.5415 -1.7867
  328TP3     H2  997   2.031   0.966   3.781  1.2760  0.1055  1.7316
  329TP3      O  998   1.320   5.960   3.968 -0.4255  0.2024  0.3924
  329TP3     H1  999   1.318   5.952   4.063 -0.6661  2.9108  0.7019
  329TP3     H2 1000   1.230   5.982   3.944  0.0607  1.7235 -0.1524
  330TP3      O 1001   1.835   4.849   3.409  0.3150  0.0176  0.2007
  330TP3     H1 1002   1.915   4.809   3.444 -0.5044 -1.0246  0.9366
  330TP3     H2 1003   1.776   4.855   3.484 -0.5012  0.2758 -0.4426
  331TP3      O 1004   5.815   1.366   2.903 -0.0723  0.6303  0.6177
  331TP3     H1 1005   5.808   1.316   2.822 -0.6636  0.6532  0.6499
  331TP3     H2 1006   5.818   1.300   2.972  2.6421  0.5076  0.4879
  332TP3      O 1007   0.635   1.064   2.705  0.0648  0.1089 -0.9326
  332TP3     H1 1008   0.675   1.149   2.722  0.9228  0.2581 -3.2490
  332TP3     H2 1009   0.709   1.006   2.688 -0.5269 -1.0553  0.3225
  333TP3      O 1010   0.425   0.107   2.848 -0.1751 -0.8769 -0.1207
  333TP3     H1 1011   0.511   0.147   2.841 -0.1568 -1.0484 -1.0425
  333TP3     H2 1012   0.397   0.095   2.757 -2.0491  1.0247  0.1467
  334TP3      O 1013   5.898   0.039   2.656 -0.2908  0.3334 -0.1638
  334TP3     H1 1014   5.913   0.004   2.744  2.8527  1.4610 -0.1244
  334TP3     H2 1015   5.872   0.130   2.671 -1.4789  0.0532 -0.4140
  335TP3      O 1016   0.396   1.085   2.563  0.0512 -0.0466 -0.3922
  335TP3     H1 1017   0.362   1.002   2.530 -0.6684 -0.2596  0.8209
  335TP3     H2 1018   0.474   1.062   2.613  0.7752  0.2040 -1.3785
  336TP3      O 1019   0.018   0.603   3.302  0.1111  0.2334  0.7851
  336TP3     H1 1020  -0.051   0.608   3.236  0.9024  0.0727 -0.0619
  336TP3     H2 1021   0.041   0.694   3.320  0.6276  0.2478  0.0610
  337TP3      O 1022   1.796   0.604   4.643 -0.5298  0.5158  0.0222
  337TP3     H1 1023   1.780   0.633   4.553  1.1136  0.6323 -0.2579
  337TP3     H2 1024   1.727   0.646   4.694 -2.6679 -1.0369 -1.3923
  338TP3      O 1025   0.185   5.268   2.990 -0.3592  0.8213 -0.1618
  338TP3     H1 1026   0.168   5.286   3.083 -0.1076 -1.5701  0.4158
  338TP3     H2 1027   0.272   5.230   2.989 -0.1863  1.2207 -1.4745
  339TP3      O 1028   1.792   0.673   1.684 -0.0358  0.5370 -0.2169
  339TP3     H1 1029   1.805   0.602   1.747 -0.1250 -1.4445 -2.3074
  339TP3     H2 1030   1.700   0.697   1.694  0.4474  1.7259  1.8010
  340TP3      O 1031   0.406   0.434   2.988 -0.1341  0.4576  0.7745
  340TP3     H1 1032   0.464   0.505   3.013  0.6174  0.6399 -1.2617
  340TP3     H2 1033   0.400   0.379   3.066  1.7788  1.0964  1.4344
  341TP3      O 1034   1.068   1.510   3.800 -0.4685  0.3981  0.1857
  341TP3     H1 1035   1.044   1.430   3.754 -1.3403  1.4868 -1.3362
  341TP3     H2 1036   1.036   1.496   3.890  1.0300 -1.6547  0.4666
  342TP3      O 1037   1.678   1.903   3.274 -0.2412 -0.4836 -0.4408
  342TP3     H1 1038   1.679   1.987   3.229  0.5691 -0.9732 -1.3895
  342TP3     H2 1039   1.652   1.924   3.364  1.2804  0.9714 -0.2943
  343TP3      O 1040   5.470   0.881   3.251  0.4977  0.1550 -0.3921
  343TP3     H1 1041   5.435   0.913   3.168 -0.4461  0.0641 -0.0387
  343TP3     H2 1042   5.415   0.922   3.318  0.5501 -0.6253  0.1409
  344TP3      O 1043   1.386   0.215   2.166 -0.9063 -0.0619  0.6399
  344TP3     H1 1044   1.302   0.209   2.120 -0.8352 -1.7039  0.6652
  344TP3     H2 1045   1.364   0.246   2.254 -1.3688  0.3513  0.3829
  345TP3      O 1046   0.501   0.831   1.062  0.1206 -0.6548  0.3105
  345TP3     H1 1047   0.596   0.827   1.078  0.0687  0.8187  1.1501
  345TP3     H2 1048   0.462   0.827   1.149 -0.4596  1.0422  0.1744
  346TP3      O 1049   1.430   2.211   2.322  0.2486 -0.1696  0.0877
  346TP3     H1 1050   1.338   2.193   2.303  0.2710  0.4294 -0.6032
  346TP3     H2 1051   1.428   2.293   2.371  0.4556  0.1068 -0.3704
  347TP3      O 1052   0.672   1.291   3.012 -0.4133 -0.0578  0.1400
  347TP3     H1 1053   0.628   1.359   2.961  0.5945  0.6550  0.1707
  347TP3     H2 1054   0.603   1.229   3.034 -0.6593 -1.4022 -3.6045
  348TP3      O 1055   0.478   0.836   1.620  0.4681  0.5886  0.3831
  348TP3     H1 1056   0.558   0.791   1.594 -0.7737 -1.0968 -0.7957
  348TP3     H2 1057   0.482   0.919   1.573  0.0659 -0.8417 -2.4006
  349TP3      O 1058   1.649   0.227   4.193 -0.8603 -0.5173 -0.2634
  349TP3     H1 1059   1.576   0.181   4.233 -0.9313 -0.5533 -0.4314
  349TP3     H2 1060   1.727   0.180   4.223 -0.8852 -0.2725  0.1839
  350TP3      O 1061   1.383   5.903   3.265  0.1425  0.1593 -0.0672
  350TP3     H1 1062   1.342   5.867   3.187  1.6739 -1.7693 -0.0708
  350TP3     H2 1063   1.382   5.831   3.328  0.6918  1.0568  1.0114
  351TP3      O 1064   5.739   1.882   3.566 -0.1135 -0.7581  0.1823
  351TP3     H1 1065   5.653   1.913   3.592 -0.1573 -1.8899  1.5045
  351TP3     H2 1066   5.721   1.807   3.509  0.0171 -0.0644 -0.8132
  352TP3      O 1067   5.139   1.895   2.659  0.2030  0.1458 -0.4514
  352TP3     H1 1068   5.132   1.976   2.709 -2.7612  0.4348 -1.1528
  352TP3     H2 1069   5.227   1.898   2.621  1.0868  1.7816  1.5556
  353TP3      O 1070   0.956   1.401   3.025  0.6280 -0.4320 -0.3676
  353TP3     H1 1071   0.880   1.355   2.988  0.7040 -0.1379 -0.9021
  353TP3     H2 1072   0.995   1.446   2.950 -0.2036  1.5801  0.3546
  354TP3      O 1073   1.715   1.255   2.973 -0.8656  0.1075  0.0716
  354TP3     H1 1074   1.717   1.173   3.022 -0.1454 -0.3840 -0.7292
  354TP3     H2 1075   1.683   1.230   2.886 -2.0284  0.9367  0.2457
  355TP3      O 1076   5.327   0.402   2.768 -0.5604 -0.3641 -0.2387
  355TP3     H1 1077   5.365   0.314   2.768 -1.1858 -0.6451  0.0306
  355TP3     H2 1078   5.232   0.386   2.767 -0.6767  0.3098 -1.3564
  356TP3      O 1079   0.063   0.306   2.935  0.0074 -0.3031 -0.2471
  356TP3     H1 1080   0.064   0.214   2.908  0.6004 -0.5158  0.4822
  356TP3     H2 1081   0.101   0.306   3.023 -0.7415  0.5359  0.0983
  357TP3      O 1082   1.526   1.037   3.432 -0.3780 -0.4943  0.2085
  357TP3     H1 1083   1.552   0.959   3.482 -1.1266 -2.0377 -1.6716
  357TP3     H2 1084   1.607   1.085   3.417  0.1662 -1.1341  1.0305
  358TP3      O 1085   0.664   0.117   2.693 -0.6649 -0.1311 -0.6222
  358TP3     H1 1086   0.704   0.085   2.612 -1.7494  1.3254 -1.7749
  358TP3     H2 1087   0.632   0.204   2.672 -0.8705  0.3451  1.4318
  359TP3      O 1088   1.678   0.404   3.514  0.3224  0.3803  0.3710
  359TP3     H1 1089   1.607   0.462   3.542 -1.0958 -0.7630 -0.7129
  359TP3     H2 1090   1.705   0.359   3.593  0.1359  1.1280  0.8729
  360TP3      O 1091   5.915   0.852   3.912  0.0504 -0.3909 -0.3829
  360TP3     H1 1092   5.891   0.776   3.859 -0.0689  0.8223 -2.1508
  360TP3     H2 1093   5.918   0.925   3.850  2.7447  0.6114  0.7376
  361TP3      O 1094   0.768   0.423   2.333  0.1724 -0.8176 -0.2436
  361TP3     H1 1095   0.819   0.464   2.403  0.2558 -1.0367 -0.1728
  361TP3     H2 1096   0.724   0.495   2.289 -0.6608 -0.7539  0.6507
  362TP3      O 1097   1.201   1.354   3.198 -0.4450  0.6437  0.6161
  362TP3     H1 1098   1.119   1.390   3.232 -0.6080 -0.3919  1.3613
  362TP3     H2 1099   1.240   1.309   3.273 -0.4100 -1.0351 -0.3638
  363TP3      O 1100   1.130   0.494   2.450  0.0464  0.1113  0.3896
  363TP3     H1 1101   1.187   0.565   2.479  0.4341 -0.3821  0.8618
  363TP3     H2 1102   1.043   0.532   2.448 -0.3922 -0.2976  4.2062
  364TP3      O 1103   5.750   1.214   2.642  0.7770 -0.1775 -0.6031
  364TP3     H1 1104   5.684   1.145   2.638 -0.3193  0.7786  0.2583
  364TP3     H2 1105   5.704   1.293   2.613  1.1342  0.7629  1.2215
  365TP3      O 1106   2.614   1.391   4.156  0.1425 -0.3570 -0.1957
  365TP3     H1 1107   2.645   1.308   4.194  2.1548  1.3040  2.1494
  365TP3     H2 1108   2.694   1.434   4.127 -1.0822 -0.1949 -3.7520
  366TP3      O 1109   1.275   1.172   2.748 -0.1565  0.1787 -0.0648
  366TP3     H1 1110   1.188   1.185   2.712 -1.0090 -4.9731 -0.6475
  366TP3     H2 1111   1.261   1.160   2.842 -0.5310 -2.2686 -0.3491
  367TP3      O 1112   2.115   1.135   3.565 -0.1588  0.0742  0.2469
  367TP3     H1 1113   2.202   1.177   3.568 -0.3560  0.4973  0.1740
  367TP3     H2 1114   2.128   1.050   3.607  0.5141 -0.2746 -0.6452
  368TP3      O 1115   0.661   2.144   2.651  0.2751  0.3915 -0.7277
  368TP3     H1 1116   0.595   2.173   2.713 -1.4155  0.1134 -2.3332
  368TP3     H2 1117   0.688   2.058   2.683  1.6742  1.4531  1.2450
  369TP3      O 1118   5.979   2.452   2.994  0.2091  0.1056 -0.1720
  369TP3     H1 1119   5.949   2.532   2.951  1.5235  0.9252  0.3790
  369TP3     H2 1120   5.963   2.467   3.087  1.5152  0.2238  0.0510
  370TP3      O 1121   1.123   2.144   4.663 -0.2824 -0.4113 -0.0634
  370TP3     H1 1122   1.219   2.143   4.662 -0.2407  0.7932  0.6184
  370TP3     H2 1123   1.100   2.112   4.750 -0.3852  1.9438  0.8381
  371TP3      O 1124   1.519   5.515   1.997  0.0299  0.3484 -0.2784
  371TP3     H1 1125   1.447   5.569   2.030  0.5533  0.0285  1.5303
  371TP3     H2 1126   1.485   5.475   1.917 -2.1280 -0.4360  0.9372
  372TP3      O 1127   1.106   1.895   2.165  1.0941 -0.3857 -0.7577
  372TP3     H1 1128   1.171   1.847   2.115  2.5964 -1.0968  1.7216
  372TP3     H2 1129   1.068   1.830   2.225 -0.6399  0.4092 -0.9328
  373TP3      O 1130   0.088   1.476   3.164 -0.4527  0.1097 -0.5542
  373TP3     H1 1131   0.013   1.456   3.220 -0.2856  0.5593 -0.1661
  373TP3     H2 1132   0.132   1.392   3.152 -1.3489 -0.2771 -1.2855
  374TP3      O 1133   1.614   0.727   2.675  0.4109  0.0792  0.0273
  374TP3     H1 1134   1.573   0.813   2.685 -0.9466 -0.6172  0.7937
  374TP3     H2 1135   1.655   0.710   2.759  2.2697  0.7244 -0.7040
  375TP3      O 1136   5.769   0.710   2.444 -0.2252 -0.4629  0.4248
  375TP3     H1 1137   5.774   0.636   2.383 -1.0908  0.4039 -0.7720
  375TP3     H2 1138   5.763   0.670   2.530  1.5453 -1.7344  0.0165
  376TP3      O 1139   1.603   1.497   2.964 -0.2152  0.0557  0.2880
  376TP3     H1 1140   1.642   1.412   2.986 -2.2756 -1.4556 -1.4885
  376TP3     H2 1141   1.641   1.558   3.028  2.0694 -1.9808  1.0169
  377TP3      O 1142   2.550   1.849   3.232  0.5731  0.0666 -0.4477
  377TP3     H1 1143   2.550   1.940   3.203  0.3344  0.1962 -0.0382
  377TP3     H2 1144   2.639   1.836   3.266  0.4643  0.2811 -0.0807
  378TP3      O 1145   1.769   0.699   3.201 -0.4232  0.1662 -0.2728
  378TP3     H1 1146   1.805   0.627   3.253 -1.6918 -0.2737  0.0143
  378TP3     H2 1147   1.716   0.656   3.134  2.1857  0.6137 -2.8787
  379TP3      O 1148   0.199   0.461   2.772 -0.1678 -0.2746 -0.1771
  379TP3     H1 1149   0.166   0.413   2.848  0.0057  1.9362  1.4208
  379TP3     H2 1150   0.121   0.502   2.734  0.0130  0.5875  0.3372
  380TP3      O 1151   0.208   1.802   1.691 -0.6671  0.1855 -0.2432
  380TP3     H1 1152   0.281   1.818   1.631 -0.4814 -1.5058 -0.4976
  380TP3     H2 1153   0.149   1.876   1.676  0.0361  0.5246 -1.4859
  381TP3      O 1154   1.008   1.510   2.125 -0.0050  0.2097 -0.4160
  381TP3     H1 1155   1.024   1.597   2.162 -1.6347  1.1973 -1.9153
  381TP3     H2 1156   1.060   1.508   2.044 -1.5168  0.6016 -1.4320
  382TP3      O 1157   1.044   1.211   2.179 -0.0243 -0.4382 -0.1124
  382TP3     H1 1158   1.131   1.180   2.152  1.0260  0.6198  1.8520
  382TP3     H2 1159   1.028   1.287   2.124  1.4752  0.8737  1.1523
  383TP3      O 1160   1.101   1.743   1.761  0.2399 -0.8087 -0.8620
  383TP3     H1 1161   1.023   1.768   1.713 -0.3204 -1.7073 -0.4447
  383TP3     H2 1162   1.163   1.814   1.745 -1.0921  0.5596 -0.1702
  384TP3      O 1163   0.083   1.337   3.892  0.5317  0.1498 -0.3911
  384TP3     H1 1164   0.041   1.416   3.858  0.3711  0.9806  1.6229
  384TP3     H2 1165   0.114   1.361   3.979  1.9691 -1.5299 -0.3669
  385TP3      O 1166   1.475   1.313   2.597 -0.0487  0.9765  0.1920
  385TP3     H1 1167   1.418   1.264   2.656  0.3862 -1.8128 -1.5057
  385TP3     H2 1168   1.431   1.309   2.512  2.7067 -1.7033 -1.3027
  386TP3      O 1169   1.271   1.048   2.320 -0.0892  0.6665 -0.2452
  386TP3     H1 1170   1.333   1.025   2.251  1.9341 -2.3440  2.2928
  386TP3     H2 1171   1.311   1.122   2.366  3.1745 -2.5403  2.7065
  387TP3      O 1172   0.469   0.833   2.310 -0.3418 -0.8264  0.7222
  387TP3     H1 1173   0.413   0.825   2.387 -0.1501 -1.5257  0.7986
  387TP3     H2 1174   0.441   0.913   2.267  0.2044  0.0993  2.0525
  388TP3      O 1175   0.709   1.652   2.292 -0.2732 -0.1399  0.7514
  388TP3     H1 1176   0.699   1.563   2.326 -0.1310 -0.2804  0.4324
  388TP3     H2 1177   0.775   1.692   2.348 -3.3142  1.2111  3.6844
  389TP3      O 1178   1.925   0.934   3.245  0.6044 -0.3238  0.4607
  389TP3     H1 1179   2.004   0.880   3.254 -0.3342 -1.5629  1.7160
  389TP3     H2 1180   1.863   0.876   3.200  0.7251  1.0273 -1.5763
  390TP3      O 1181   5.431   1.431   1.915 -0.2539 -0.7820 -0.7518
  390TP3     H1 1182   5.524   1.429   1.894 -0.2521 -3.5166 -0.7870
  390TP3     H2 1183   5.426   1.403   2.006 -0.9434  1.9219  0.1520
  391TP3      O 1184   5.709   0.465   3.357  0.1806  0.2970 -0.3645
  391TP3     H1 1185   5.683   0.544   3.308  0.4058 -0.2985 -1.4769
  391TP3     H2 1186   5.634   0.406   3.348  0.9745 -0.5557 -1.6618
  392TP3      O 1187   0.560   0.288   3.554 -0.1249 -0.2224 -0.3837
  392TP3     H1 1188   0.506   0.282   3.633  0.7843 -0.6257  0.2179
  392TP3     H2 1189   0.531   0.368   3.511 -1.2456 -0.4634 -0.1085
  393TP3      O 1190   5.858   5.961   2.384 -0.2538 -0.0861 -0.7730
  393TP3     H1 1191   5.884   5.992   2.471  0.6625 -1.8059 -0.3868
  393TP3     H2 1192   5.940   5.948   2.337 -0.6594 -0.7690 -1.3115
  394TP3      O 1193   1.264   1.116   3.346  0.1071  0.1963 -0.1641
  394TP3     H1 1194   1.207   1.039   3.341 -0.2676  0.5455 -1.7379
  394TP3     H2 1195   1.344   1.084   3.388  0.6090 -1.4869 -2.2363
  395TP3      O 1196  -0.025   0.554   1.997 -0.4983  0.8519 -0.2232
  395TP3     H1 1197   0.063   0.587   2.015 -0.6817  0.8754  0.6606
  395TP3     H2 1198  -0.037   0.483   2.060 -0.3743 -0.4708 -1.6348
  396TP3      O 1199   1.620   1.384   1.456 -0.4622  0.2244 -0.4759
  396TP3     H1 1200   1.707   1.347   1.470 -0.5817  0.1090 -0.0109
  396TP3     H2 1201   1.580   1.382   1.543 -1.0206  0.0444 -0.7374
  397TP3      O 1202   1.074   1.584   2.839  0.0147 -1.0173 -0.0420
  397TP3     H1 1203   1.153   1.554   2.884 -1.7666 -1.5650  2.9978
  397TP3     H2 1204   1.082   1.679   2.836  0.7532 -1.0613  0.3023
  398TP3      O 1205   1.422   2.375   1.859 -0.2822  0.2618 -0.8339
  398TP3     H1 1206   1.421   2.291   1.905 -1.5838  1.0289  0.6363
  398TP3     H2 1207   1.392   2.355   1.770 -0.8158 -0.7920 -0.4319
  399TP3      O 1208   5.838   0.282   3.179 -0.5638  0.0937 -0.8645
  399TP3     H1 1209   5.814   0.345   3.246  0.3293 -2.1117  1.7486
  399TP3     H2 1210   5.931   0.300   3.162 -0.6287  0.2544 -1.0542
  400TP3      O 1211   1.576   1.521   2.688 -0.0890  0.0208  0.0052
  400TP3     H1 1212   1.559   1.430   2.664 -1.9458  0.6256 -1.1705
  400TP3     H2 1213   1.573   1.521   2.784  0.7130 -1.2669  0.0540
  401TP3      O 1214   0.490   2.001   3.175  0.2432 -0.0386  0.1594
  401TP3     H1 1215   0.400   2.031   3.169 -0.4272 -1.5301  1.8766
  401TP3     H2 1216   0.543   2.080   3.166 -1.3786  1.6348  3.6440
  402TP3      O 1217   1.345   1.159   3.016 -0.1492 -0.1566 -0.5906
  402TP3     H1 1218   1.315   1.076   3.054  0.6776  0.4637  1.5682
  402TP3     H2 1219   1.320   1.225   3.080  1.0498  1.0116 -1.2908
  403TP3      O 1220   2.046   1.116   3.073 -0.4801  0.2498  0.8374
  403TP3     H1 1221   1.996   1.051   3.123  0.0611 -0.3945  0.5614
  403TP3     H2 1222   2.055   1.190   3.132 -3.2966  1.1348  0.2849
  404TP3      O 1223   0.560   1.423   1.459 -0.2022 -0.1660  0.3739
  404TP3     H1 1224   0.513   1.388   1.534 -0.2706  0.1026  0.4569
  404TP3     H2 1225   0.522   1.378   1.384 -1.5001  0.9824  0.3140
  405TP3      O 1226   1.563   0.311   3.310 -0.0727  0.1813 -0.1126
  405TP3     H1 1227   1.613   0.348   3.383 -1.8755  3.2175 -0.2513
  405TP3     H2 1228   1.493   0.261   3.351  1.1161 -1.3788  0.1089
  406TP3      O 1229   2.042   0.515   2.989  0.9882 -1.0053  0.7919
  406TP3     H1 1230   2.073   0.566   3.064  0.5004 -0.0800  0.3718
  406TP3     H2 1231   2.116   0.514   2.929 -0.1569  2.5800 -0.9353
  407TP3      O 1232   1.488   0.448   2.052  0.1833 -0.4081  0.0106
  407TP3     H1 1233   1.397   0.475   2.051  0.2667 -0.0330 -2.1759
  407TP3     H2 1234   1.485   0.353   2.057 -0.3372 -0.4296 -0.6911
  408TP3      O 1235   0.424   1.530   3.094 -0.3773  0.7959 -0.0676
  408TP3     H1 1236   0.439   1.607   3.039 -2.5114  1.4495  0.1833
  408TP3     H2 1237   0.398   1.461   3.032  1.7941  0.1263 -0.3234
  409TP3      O 1238   0.224   1.505   2.305 -0.7683  0.2503 -0.1454
  409TP3     H1 1239   0.260   1.419   2.326 -1.3865  0.4086  1.7196
  409TP3     H2 1240   0.298   1.565   2.317 -0.5398  0.0904 -0.6928
  410TP3      O 1241   1.315   0.915   1.442  0.3257 -0.7292  0.1570
  410TP3     H1 1242   1.276   0.984   1.389  0.5978  0.3533  1.3039
  410TP3     H2 1243   1.291   0.833   1.398 -1.9898 -0.0411  0.0223
  411TP3      O 1244   2.297   1.225   2.551 -0.2522 -0.5626  0.3317
  411TP3     H1 1245   2.276   1.300   2.608  2.7409  0.0492  0.8511
  411TP3     H2 1246   2.392   1.215   2.561  0.0015 -2.0739 -2.6409
  412TP3      O 1247   0.134   1.101   4.156 -0.3636  0.4895  0.5476
  412TP3     H1 1248   0.164   1.143   4.075  3.4890  1.8715  2.4208
  412TP3     H2 1249   0.110   1.175   4.213 -0.7585 -0.2943  1.4189
  413TP3      O 1250   1.054   1.126   2.949 -0.6870  0.6078  0.3847
  413TP3     H1 1251   0.993   1.196   2.925  0.0058  2.0861  2.6751
  413TP3     H2 1252   1.043   1.116   3.043 -0.7473 -2.4405  0.1567
  414TP3      O 1253   0.376   1.271   2.331 -0.7549 -0.2616  0.0272
  414TP3     H1 1254   0.391   1.206   2.399  0.7626  2.0827  2.1619
  414TP3     H2 1255   0.442   1.252   2.264  2.4444  1.2271  2.4868
  415TP3      O 1256   1.052   0.215   2.564  0.5063  0.5215 -0.4511
  415TP3     H1 1257   1.109   0.253   2.630 -0.9113  1.8479  0.0608
  415TP3     H2 1258   1.053   0.121   2.582  0.8608  0.7717  0.8722
  416TP3      O 1259   0.874   0.576   2.538 -0.1604  0.5158  0.1118
  416TP3     H1 1260   0.885   0.491   2.580  1.1960  0.1523 -0.8944
  416TP3     H2 1261   0.809   0.621   2.591 -0.6708 -1.0276  0.8520
  417TP3      O 1262   2.168   2.521   2.757 -0.1321  0.9057  0.5655
  417TP3     H1 1263   2.166   2.493   2.666  0.4364  1.3943  0.3985
  417TP3     H2 1264   2.089   2.575   2.767 -0.2176  0.8181  0.3776
  418TP3      O 1265   0.865   1.249   2.734 -0.5278 -0.4081 -0.6116
  418TP3     H1 1266   0.913   1.242   2.651  0.6338  0.6779 -0.0700
  418TP3     H2 1267   0.790   1.304   2.713 -0.8291 -1.0340 -1.1852
  419TP3      O 1268   0.092   1.170   2.927 -0.0116 -0.6898  0.2296
  419TP3     H1 1269   0.077   1.157   2.833  1.0178 -0.2921 -0.0039
  419TP3     H2 1270   0.060   1.089   2.967  1.0501 -1.5719 -0.6343
  420TP3      O 1271   0.992   5.673   3.029  0.2151  0.3131  0.8227
  420TP3     H1 1272   1.048   5.703   3.100 -0.9517  1.0150  1.4923
  420TP3     H2 1273   0.903   5.691   3.060 -0.4735 -1.9690  0.3724
  421TP3      O 1274   0.958   0.050   3.123  0.2897 -0.2479 -0.0990
  421TP3     H1 1275   0.908   0.061   3.204 -1.6960 -1.9778 -0.9804
  421TP3     H2 1276   0.912  -0.020   3.076  1.2270  0.8319 -2.8325
  422TP3      O 1277   0.141   1.012   2.110  0.6925 -0.1066 -0.1152
  422TP3     H1 1278   0.151   1.018   2.206 -0.6805 -1.2858  0.1308
  422TP3     H2 1279   0.104   1.097   2.086  0.0517 -0.1853  0.5529
  423TP3      O 1280   0.406   1.739   3.278  0.0244  0.4154  0.3716
  423TP3     H1 1281   0.424   1.670   3.214 -0.4641 -0.1905  0.8781
  423TP3     H2 1282   0.444   1.818   3.239 -1.5686  0.3944 -1.3649
  424TP3      O 1283   0.591   0.119   1.992  0.1696 -0.0136  0.1227
  424TP3     H1 1284   0.525   0.073   1.939  0.5428 -0.6794  0.2297
  424TP3     H2 1285   0.556   0.208   2.001 -0.6628 -0.3243  0.0774
  425TP3      O 1286   1.672   0.478   2.355 -0.8046  0.1431 -0.1508
  425TP3     H1 1287   1.717   0.463   2.438  1.0935 -1.0442 -1.3040
  425TP3     H2 1288   1.635   0.392   2.332  0.8567 -0.2107 -1.6879
  426TP3      O 1289   0.986   5.460   3.649 -0.0781 -0.0623 -0.0325
  426TP3     H1 1290   0.931   5.391   3.612  1.2376 -1.2954  0.2136
  426TP3     H2 1291   0.934   5.498   3.719 -0.9405 -0.6190 -0.3548
  427TP3      O 1292   5.624   1.094   2.268  0.2287 -0.0963  0.3962
  427TP3     H1 1293   5.562   1.036   2.313  0.0568 -1.5986 -1.6515
  427TP3     H2 1294   5.687   1.035   2.226  0.2690  1.1740 -1.4706
  428TP3      O 1295   0.438   2.079   1.764 -0.4608  0.0894 -0.2935
  428TP3     H1 1296   0.434   2.050   1.673  0.9206  1.2887 -0.7813
  428TP3     H2 1297   0.423   2.174   1.760 -1.2788  0.0294  0.8352
  429TP3      O 1298   0.113   0.729   3.003  0.0376 -0.4432 -0.9661
  429TP3     H1 1299   0.184   0.684   3.049  0.2246 -0.4876 -1.2931
  429TP3     H2 1300   0.040   0.728   3.064  1.2626  2.5185  0.7458
  430TP3      O 1301   1.081   0.051   3.842  0.1169 -0.6089  0.3154
  430TP3     H1 1302   1.039   0.019   3.762 -0.1179 -0.9447  0.5695
  430TP3     H2 1303   1.014   0.042   3.909 -0.8164  2.6748 -0.0316
  431TP3      O 1304   0.425   1.122   3.650 -0.4520 -0.1897 -0.5215
  431TP3     H1 1305   0.501   1.166   3.613  0.0200 -0.8575 -0.3530
  431TP3     H2 1306   0.377   1.191   3.696 -0.2721  0.3511 -1.1428
  432TP3      O 1307   0.039   1.134   5.440  0.0679 -0.8307 -0.1899
  432TP3     H1 1308  -0.029   1.080   5.401  0.3988 -0.6181 -1.0806
  432TP3     H2 1309  -0.006   1.212   5.471 -0.5171 -1.8276  1.6317
  433TP3      O 1310   2.006   2.276   4.021 -0.3274  0.2166 -0.6939
  433TP3     H1 1311   2.008   2.208   3.953 -1.6893  0.0143 -0.5482
  433TP3     H2 1312   1.992   2.357   3.974 -0.0529  0.2345 -0.7486
  434TP3      O 1313   1.420   0.323   4.755  0.0278 -0.3414  0.1074
  434TP3     H1 1314   1.463   0.386   4.813  1.0431 -0.5379 -0.4080
  434TP3     H2 1315   1.328   0.347   4.757  0.5398  1.9161 -1.0284
  435TP3      O 1316   1.230   5.728   3.747  0.2366 -0.6700  0.1396
  435TP3     H1 1317   1.193   5.639   3.745 -1.6518  0.0350  0.8396
  435TP3     H2 1318   1.236   5.749   3.840  1.0246 -0.1858 -0.0138
  436TP3      O 1319   0.122   1.289   4.661  0.0981 -0.3994  0.5236
  436TP3     H1 1320   0.176   1.217   4.695  0.5301  0.6238  2.0905
  436TP3     H2 1321   0.173   1.324   4.587  1.3725  0.2118  1.6485
  437TP3      O 1322   1.088   5.748   5.367  0.1226 -0.0702  0.5983
  437TP3     H1 1323   1.117   5.745   5.276 -0.9172  0.7853  0.2105
  437TP3     H2 1324   1.028   5.822   5.370  0.4455  0.1696  2.0811
  438TP3      O 1325   0.954   0.616   4.454  0.0153 -0.8750 -0.3833
  438TP3     H1 1326   1.006   0.694   4.475 -0.5053  0.0844 -2.3614
  438TP3     H2 1327   0.877   0.622   4.510  0.5881 -0.6611  0.3892
  439TP3      O 1328   0.778   0.729   5.470 -0.1911 -0.1790  0.1827
  439TP3     H1 1329   0.737   0.663   5.526 -3.0795  2.3846  1.3542
  439TP3     H2 1330   0.818   0.678   5.399  1.1807 -3.3667  2.9741
  440TP3      O 1331   0.227   1.072   4.763  0.5571  0.0006  0.6004
  440TP3     H1 1332   0.253   1.064   4.855 -1.1355  1.9415  1.3285
  440TP3     H2 1333   0.220   0.981   4.733  2.5651 -0.6651  1.9201
  441TP3      O 1334   1.993   0.964   4.957  0.1440 -0.2835 -0.1474
  441TP3     H1 1335   1.941   1.021   4.901  0.5068  2.1499  1.8234
  441TP3     H2 1336   2.080   1.005   4.959  0.8532 -1.7240  0.2263
  442TP3      O 1337   0.368   5.977   0.018  0.1222  0.7849 -0.7625
  442TP3     H1 1338   0.451   5.932   0.030  0.3054  1.0079 -1.1888
  442TP3     H2 1339   0.391   6.059  -0.024 -0.1060  1.7261  0.8591
  443TP3      O 1340   2.039   1.431   4.361  0.3888  0.3337  0.1121
  443TP3     H1 1341   2.032   1.472   4.275  0.6269 -0.1319 -0.1352
  443TP3     H2 1342   1.985   1.485   4.418 -0.3255  0.2608 -0.4755
  444TP3      O 1343   0.138   2.992   4.181 -0.4254 -0.3316  0.2867
  444TP3     H1 1344   0.103   2.906   4.158 -0.1892  0.0588 -1.7243
  444TP3     H2 1345   0.200   2.974   4.252 -1.1260 -1.6648  0.5978
  445TP3      O 1346   1.274   1.367   5.655 -0.0178 -0.5710 -0.5147
  445TP3     H1 1347   1.286   1.340   5.746  1.9341 -1.4496 -0.9785
  445TP3     H2 1348   1.232   1.292   5.614 -0.3784 -0.3950 -0.4728
  446TP3      O 1349   0.654   1.089   4.007  0.3690 -0.3364  0.3395
  446TP3     H1 1350   0.590   1.025   4.039  0.5731  0.3038  2.1447
  446TP3     H2 1351   0.702   1.042   3.938 -1.9079 -0.8663 -0.9632
  447TP3      O 1352   0.561   1.331   4.401  0.0566 -0.6206 -0.2403
  447TP3     H1 1353   0.648   1.359   4.429 -0.4503  0.1322  0.6045
  447TP3     H2 1354   0.560   1.346   4.307  0.4023  0.5648 -0.0641
  448TP3      O 1355   1.250   1.899   5.228 -0.2216 -0.5374  0.0604
  448TP3     H1 1356   1.309   1.898   5.153  1.0843  0.8762  1.0079
  448TP3     H2 1357   1.307   1.922   5.302 -1.8411  0.1666  1.1332
  449TP3      O 1358   5.439   1.710   3.345  0.4923 -0.2354  0.0148
  449TP3     H1 1359   5.442   1.780   3.279  0.0346  0.2053  0.4538
  449TP3     H2 1360   5.527   1.671   3.343 -0.2831 -2.1121 -2.8276
  450TP3      O 1361   1.665   1.029   4.668  0.8256 -0.0028  0.0941
  450TP3     H1 1362   1.575   1.058   4.655 -0.5990 -2.2041  3.4886
  450TP3     H2 1363   1.692   0.993   4.584 -2.9940 -2.8355 -0.1564
  451TP3      O 1364   0.205   0.718   4.993  0.3750  0.2342 -0.4655
  451TP3     H1 1365   0.267   0.703   5.064 -0.4168 -0.2794  0.1412
  451TP3     H2 1366   0.136   0.773   5.031  0.9197  1.6363 -1.4005
  452TP3      O 1367   1.816   1.578   4.676  0.2116  0.0642  0.6340
  452TP3     H1 1368   1.760   1.574   4.754  0.1441  0.5687  0.6106
  452TP3     H2 1369   1.801   1.664   4.639 -1.2938 -0.8772 -1.0917
  453TP3      O 1370   5.301   0.980   3.848  0.5336 -0.0460  0.1186
  453TP3     H1 1371   5.309   0.896   3.894 -0.8166  0.0137  0.5294
  453TP3     H2 1372   5.217   0.973   3.802 -0.0257  1.4025  0.8617
  454TP3      O 1373   0.905   1.063   3.312  0.0769 -0.6323 -0.6743
  454TP3     H1 1374   0.942   1.020   3.389  1.6836  0.9713 -0.4991
  454TP3     H2 1375   0.817   1.090   3.339  0.1883 -1.1032  0.1868
  455TP3      O 1376   1.564   0.499   4.161 -0.2326  0.1902  0.7704
  455TP3     H1 1377   1.595   0.409   4.175 -0.9642 -0.3251 -0.7427
  455TP3     H2 1378   1.486   0.505   4.216 -1.0320 -0.6142 -0.2387
  456TP3      O 1379   5.361   0.710   5.228  0.0954 -0.5671  0.0454
  456TP3     H1 1380   5.413   0.664   5.295  0.4774 -1.0356 -0.5494
  456TP3     H2 1381   5.391   0.671   5.145  0.1568  0.5019 -0.4549
  457TP3      O 1382   0.362   1.603   3.697 -0.6133 -0.1497  0.5913
  457TP3     H1 1383   0.302   1.674   3.676 -0.4382  0.7906  2.9930
  457TP3     H2 1384   0.437   1.616   3.638 -1.0835  0.9777  0.2252
  458TP3      O 1385   0.573   1.892   4.449 -0.5915  0.5571 -0.7529
  458TP3     H1 1386   0.533   1.946   4.517 -0.4052 -0.0087 -0.1904
  458TP3     H2 1387   0.634   1.951   4.405  1.2999  0.2750  1.3078
  459TP3      O 1388   0.762   0.447   3.769  0.2438  0.0981 -0.2990
  459TP3     H1 1389   0.820   0.437   3.844 -0.2364 -0.8772 -0.0291
  459TP3     H2 1390   0.718   0.362   3.762 -0.1133  0.3522 -1.3544
  460TP3      O 1391   0.854   0.960   4.441  0.8564 -0.4146 -0.3588
  460TP3     H1 1392   0.782   0.914   4.483  0.8881 -0.7715 -0.6894
  460TP3     H2 1393   0.818   0.990   4.357  0.9731 -0.2511 -0.3513
  461TP3      O 1394   1.821   0.837   3.527  0.6985  0.4483  0.1541
  461TP3     H1 1395   1.826   0.918   3.477  0.0367  0.6230  0.3638
  461TP3     H2 1396   1.908   0.798   3.518  1.0006  1.1441 -0.0027
  462TP3      O 1397   0.909   1.467   5.190  0.1834 -0.3079  0.4824
  462TP3     H1 1398   0.818   1.469   5.219 -1.3210 -3.6754 -3.1936
  462TP3     H2 1399   0.912   1.529   5.117  0.8955 -0.0638  0.7156
  463TP3      O 1400   0.833   5.226   5.265 -0.8537 -0.2259 -0.1482
  463TP3     H1 1401   0.806   5.316   5.245  0.4083  0.2773  0.3404
  463TP3     H2 1402   0.912   5.212   5.214 -0.0268 -0.4242  1.1436
  464TP3      O 1403   1.440   1.787   5.599  0.1499 -0.1755 -0.1498
  464TP3     H1 1404   1.387   1.761   5.523 -0.6221 -0.3857  0.4417
  464TP3     H2 1405   1.519   1.733   5.592  0.2983  0.1328 -1.0420
  465TP3      O 1406   2.232   2.317   3.842  0.0153 -0.0019  0.1487
  465TP3     H1 1407   2.220   2.411   3.831 -0.7317 -0.1070  0.0311
  465TP3     H2 1408   2.228   2.303   3.937 -2.2241 -0.2008  0.0653
  466TP3      O 1409   0.535   1.618   3.490  0.1347  0.3581  0.7198
  466TP3     H1 1410   0.483   1.656   3.419 -0.7313 -0.6602  0.7823
  466TP3     H2 1411   0.621   1.603   3.451  0.0538  1.0082  0.2719
  467TP3      O 1412   2.429   0.549   4.799 -0.0649 -0.4592  0.0594
  467TP3     H1 1413   2.511   0.540   4.751  0.2784  0.2439  0.4959
  467TP3     H2 1414   2.363   0.514   4.740  0.2558  0.9859 -1.2017
  468TP3      O 1415   1.003   2.159   3.827  0.1685 -0.2594  0.2202
  468TP3     H1 1416   0.986   2.065   3.821  1.2167 -0.4353 -0.3356
  468TP3     H2 1417   0.934   2.200   3.776  0.1768 -0.7924 -0.2266
  469TP3      O 1418   0.841   1.349   4.858  0.8269 -0.2589  0.1412
  469TP3     H1 1419   0.916   1.291   4.845  2.2404  1.1098  1.7101
  469TP3     H2 1420   0.791   1.309   4.928  1.2200 -0.1336  0.4948
  470TP3      O 1421   1.322   0.595   4.846  0.3837 -0.4478 -0.2551
  470TP3     H1 1422   1.309   0.680   4.888  0.3501 -0.8121  0.4902
  470TP3     H2 1423   1.234   0.569   4.819  0.5272  0.2224 -1.4451
  471TP3      O 1424   1.221   0.436   0.078  0.4677 -0.9659  0.4212
  471TP3     H1 1425   1.149   0.488   0.114  0.4738  1.5187 -2.7315
  471TP3     H2 1426   1.197   0.345   0.098 -1.3084 -0.0454  3.1512
  472TP3      O 1427   1.070   0.469   4.844 -0.2278  0.7404  0.6864
  472TP3     H1 1428   1.025   0.553   4.835 -1.0774  0.2404  0.1117
  472TP3     H2 1429   1.015   0.407   4.796  1.0203  0.0798  0.0700
  473TP3      O 1430   1.126   0.668   4.098  0.4399  0.1725 -0.4834
  473TP3     H1 1431   1.035   0.663   4.130  0.2504 -1.0233 -1.1564
  473TP3     H2 1432   1.121   0.636   4.008  1.5536 -0.0080 -0.4859
  474TP3      O 1433   0.217   0.502   3.495  0.5270 -0.7444 -0.1505
  474TP3     H1 1434   0.226   0.577   3.553  3.5417  0.5051 -1.9812
  474TP3     H2 1435   0.154   0.530   3.428  0.8346 -0.2562 -0.2353
  475TP3      O 1436   0.041   2.670   5.362 -0.1628 -0.4588 -0.2472
  475TP3     H1 1437   0.111   2.618   5.323 -0.7148 -1.0536 -0.4663
  475TP3     H2 1438   0.062   2.671   5.456  0.2385 -0.4723 -0.3354
  476TP3      O 1439   1.139   5.659   3.319 -0.0502 -0.4727  0.9301
  476TP3     H1 1440   1.049   5.664   3.349  0.2507 -1.3311  2.0223
  476TP3     H2 1441   1.191   5.694   3.391  0.5495 -0.8329  0.6852
  477TP3      O 1442   1.173   0.261   1.533  0.5248 -0.3893  0.1903
  477TP3     H1 1443   1.086   0.223   1.547 -0.0780  1.1929  0.9599
  477TP3     H2 1444   1.169   0.297   1.444 -0.3788  1.5372  0.9649
  478TP3      O 1445   1.516   1.275   3.937  0.3267  0.3137 -0.3131
  478TP3     H1 1446   1.545   1.357   3.896  0.9408 -0.4489 -1.4912
  478TP3     H2 1447   1.500   1.297   4.028 -1.8400  2.2958 -1.0712
  479TP3      O 1448   5.909   0.861   5.377  0.2967  0.2441 -0.0761
  479TP3     H1 1449   5.826   0.847   5.331  1.2417 -2.4310 -1.1541
  479TP3     H2 1450   5.931   0.776   5.415  2.4002  0.9531  0.4619
  480TP3      O 1451   0.323   1.352   4.520 -0.5369  0.2068 -0.3343
  480TP3     H1 1452   0.407   1.348   4.474 -0.7226  2.1959 -0.9457
  480TP3     H2 1453   0.345   1.380   4.609 -0.3117 -2.3281  0.4938
  481TP3      O 1454   0.709   2.177   3.774 -0.5971 -0.4490  0.2762
  481TP3     H1 1455   0.642   2.196   3.840  1.0865  0.9042  1.7090
  481TP3     H2 1456   0.740   2.263   3.745  0.8257 -1.0164  0.0027
  482TP3      O 1457   2.156   1.157   3.963 -0.1633  0.0930  0.5063
  482TP3     H1 1458   2.150   1.240   3.917  0.0101 -0.6487 -0.9090
  482TP3     H2 1459   2.066   1.123   3.964  0.1704 -0.9681 -1.4151
  483TP3      O 1460   0.883   1.641   4.940 -0.5492 -0.0330 -0.0932
  483TP3     H1 1461   0.818   1.686   4.884 -0.6601 -0.7201 -0.5243
  483TP3     H2 1462   0.912   1.567   4.887  1.5266  0.9556 -0.4225
  484TP3      O 1463   0.866   0.814   3.217  0.0744  0.5041  0.5739
  484TP3     H1 1464   0.874   0.909   3.217 -1.5340  0.7111 -1.7177
  484TP3     H2 1465   0.855   0.790   3.125  0.1201 -1.8734  1.1141
  485TP3      O 1466   2.154   0.629   5.818  0.2142  0.8476 -0.2914
  485TP3     H1 1467   2.227   0.568   5.807 -0.2320  0.3346 -0.4242
  485TP3     H2 1468   2.196   0.712   5.840  0.7686 -0.0991  2.7255
  486TP3      O 1469   1.583   0.634   4.792  0.1689  0.1661 -0.7596
  486TP3     H1 1470   1.489   0.630   4.812 -0.1984  1.3684 -2.0637
  486TP3     H2 1471   1.617   0.703   4.849  0.2118 -0.1122 -0.4495
  487TP3      O 1472   0.943   0.950   3.553 -0.5212  0.5891  0.2847
  487TP3     H1 1473   1.035   0.938   3.576 -0.0233  0.3425 -1.6859
  487TP3     H2 1474   0.906   0.861   3.555 -0.6968  0.6684  0.9060
  488TP3      O 1475   5.914   0.889   5.745 -0.0128  0.1318 -0.2125
  488TP3     H1 1476   5.840   0.946   5.724 -0.9360 -0.8088  0.4036
  488TP3     H2 1477   5.903   0.868   5.838 -0.5614 -2.2281 -0.7499
  489TP3      O 1478   2.339   1.601   3.571  0.0813  0.4230  0.2717
  489TP3     H1 1479   2.386   1.683   3.552  0.2339  0.4896  0.9154
  489TP3     H2 1480   2.303   1.615   3.658 -1.1801  0.3905 -0.2228
  490TP3      O 1481   0.165   0.782   3.568 -0.0116 -0.1422  0.1474
  490TP3     H1 1482   0.089   0.822   3.525  0.5654  2.1309  1.0771
  490TP3     H2 1483   0.232   0.850   3.565  0.4713 -0.3378  3.4073
  491TP3      O 1484   0.821   0.097   4.306  0.2079 -0.1543  0.0201
  491TP3     H1 1485   0.866   0.179   4.329 -1.6118  0.8593  0.1164
  491TP3     H2 1486   0.753   0.087   4.372 -0.5772 -0.9484 -0.8742
  492TP3      O 1487   0.097   2.657   4.770  0.5429  0.3881  0.0766
  492TP3     H1 1488   0.048   2.691   4.695 -0.4669 -2.4383 -0.7028
  492TP3     H2 1489   0.035   2.657   4.842  0.2710 -0.4766 -0.1436
  493TP3      O 1490   0.744   1.468   4.629 -0.1379 -0.2525  0.2181
  493TP3     H1 1491   0.771   1.393   4.576  0.0075  0.7798 -1.2356
  493TP3     H2 1492   0.782   1.452   4.715 -0.4353 -2.0167  0.0551
  494TP3      O 1493   0.557   5.958   3.923  0.3037 -0.2203 -0.3699
  494TP3     H1 1494   0.502   5.882   3.902 -1.9734  0.9875  0.8670
  494TP3     H2 1495   0.550   5.966   4.018  1.4197  0.8879 -0.3581
  495TP3      O 1496   1.955   0.203   4.836  0.2136 -0.1151  0.1416
  495TP3     H1 1497   1.946   0.131   4.773  0.2513  0.0933 -0.1024
  495TP3     H2 1498   1.906   0.275   4.798  0.2661  0.0241  0.3356
  496TP3      O 1499   0.133   5.180   3.679  0.6281 -0.7099  0.1596
  496TP3     H1 1500   0.138   5.243   3.750 -0.9589 -0.1491 -0.1647
  496TP3     H2 1501   0.155   5.230   3.600 -1.1036 -0.3786 -0.1613
  497TP3      O 1502   1.156   1.098   4.271  0.2202  0.2458  0.4996
  497TP3     H1 1503   1.192   1.017   4.234  2.6364  2.2332 -1.9351
  497TP3     H2 1504   1.120   1.145   4.196  2.7384  3.2231  0.9669
  498TP3      O 1505   0.173   2.173   4.900  0.0878 -0.3047  0.2828
  498TP3     H1 1506   0.159   2.079   4.905 -1.2166 -0.1860 -0.6655
  498TP3     H2 1507   0.085   2.211   4.904  0.6134  0.9148  1.1371
  499TP3      O 1508   2.429   0.636   4.462  0.1245  0.2947  0.0727
  499TP3     H1 1509   2.336   0.623   4.484  0.2554  0.6080  0.8548
  499TP3     H2 1510   2.452   0.718   4.504  0.8407  0.0562  0.1572
  500TP3      O 1511   0.968   0.935   5.104 -0.1309  0.6409  0.2338
  500TP3     H1 1512   0.938   1.025   5.095  0.9854  1.1017  0.9599
  500TP3     H2 1513   1.063   0.941   5.108  0.1680 -0.7907 -2.2748
  501TP3      O 1514   1.154   0.636   3.840  0.0477  0.0898  1.1792
  501TP3     H1 1515   1.240   0.621   3.878 -0.1103 -1.9207  0.8489
  501TP3     H2 1516   1.137   0.558   3.787 -1.2060  1.2521 -0.2397
  502TP3      O 1517   0.015   5.866   3.642 -0.1744  0.5470  0.4748
  502TP3     H1 1518  -0.077   5.890   3.633  0.1348  1.7074  0.2190
  502TP3     H2 1519   0.062   5.950   3.644  1.0092 -0.0361 -0.8540
  503TP3      O 1520   1.605   2.029   3.548 -0.1783  0.0010  0.2067
  503TP3     H1 1521   1.510   2.039   3.536 -0.1851  0.6900  0.7312
  503TP3     H2 1522   1.641   2.116   3.528  0.1173  0.3074  1.8663
  504TP3      O 1523   0.032   5.979   4.292  0.2174 -0.0197  0.2169
  504TP3     H1 1524  -0.007   5.919   4.229  0.8139  0.0153 -0.1889
  504TP3     H2 1525   0.111   6.011   4.250  1.0430 -0.5872  1.2800
  505TP3      O 1526   1.307   0.046   4.555  0.4295 -0.1681 -0.0582
  505TP3     H1 1527   1.212   0.048   4.544  0.5866 -2.0832 -2.6665
  505TP3     H2 1528   1.320   0.023   4.647 -1.5029  2.6366  1.0453
  506TP3      O 1529   1.054   0.817   4.588  0.0160  0.2021  0.2037
  506TP3     H1 1530   1.103   0.877   4.644  0.1073  1.0432 -0.7286
  506TP3     H2 1531   0.986   0.873   4.548 -1.4153 -0.8336  1.1070
  507TP3      O 1532   0.819   1.260   4.470  0.4957 -0.9684 -0.3696
  507TP3     H1 1533   0.878   1.294   4.403  1.4820  0.3798  1.1051
  507TP3     H2 1534   0.854   1.174   4.493  0.9673 -0.8339 -0.5882
  508TP3      O 1535   0.482   1.099   3.130  0.5505  0.0657 -0.6915
  508TP3     H1 1536   0.448   1.027   3.076  4.3340 -1.6230 -1.1757
  508TP3     H2 1537   0.482   1.063   3.219 -2.1859  1.4779 -0.0064
  509TP3      O 1538   1.136   2.567   4.009 -0.1271 -0.2828 -0.4575
  509TP3     H1 1539   1.048   2.551   4.043 -0.2835  1.5966  0.1390
  509TP3     H2 1540   1.191   2.501   4.051 -0.7434  0.4581  1.6256
  510TP3      O 1541   1.657   0.772   3.758 -0.2525 -0.0760 -0.5448
  510TP3     H1 1542   1.722   0.820   3.706 -0.4962  1.5188  0.5421
  510TP3     H2 1543   1.706   0.700   3.797  0.0810 -0.8914 -2.3827
  511TP3      O 1544   0.537   1.698   4.961  0.4678 -0.2499  0.3299
  511TP3     H1 1545   0.525   1.788   4.932 -3.0079 -0.8588 -0.5930
  511TP3     H2 1546   0.582   1.705   5.045 -0.1247  2.3585  0.4903
  512TP3      O 1547   0.264   0.841   5.349 -0.0958 -0.4851  0.6051
  512TP3     H1 1548   0.330   0.784   5.310 -0.2536 -1.7353  2.0562
  512TP3     H2 1549   0.181   0.797   5.331 -0.2927 -0.3045  1.0509
  513TP3      O 1550   0.778   5.954   4.550  0.7809 -0.2030  0.3509
  513TP3     H1 1551   0.803   6.035   4.595 -0.3490 -0.7700  2.0705
  513TP3     H2 1552   0.797   5.884   4.612  1.3293 -1.2499 -0.9506
  514TP3      O 1553   0.901   5.710   4.313  0.3175 -0.1749  0.1324
  514TP3     H1 1554   0.842   5.674   4.380  0.0388 -0.7339 -0.4074
  514TP3     H2 1555   0.973   5.748   4.363 -0.1418 -0.1323  0.7733
  515TP3      O 1556   1.923   1.498   4.018 -0.0009  0.2405 -0.6083
  515TP3     H1 1557   1.850   1.482   4.079  0.2380 -1.2210 -0.6568
  515TP3     H2 1558   1.988   1.544   4.070 -0.2179 -0.0903 -0.0325
  516TP3      O 1559   1.898   0.796   5.154  0.1783 -0.8073  0.4357
  516TP3     H1 1560   1.878   0.723   5.095 -0.1069 -1.6945  1.5886
  516TP3     H2 1561   1.911   0.871   5.096 -0.4328 -1.5689 -0.7312
  517TP3      O 1562   1.427   1.270   4.289  0.2015  0.2382 -0.5465
  517TP3     H1 1563   1.344   1.235   4.257 -1.0892  1.8984  0.7327
  517TP3     H2 1564   1.466   1.199   4.340 -1.1210 -0.1702 -0.0553
  518TP3      O 1565   5.428   2.411   3.710  0.0621  0.3609  0.3838
  518TP3     H1 1566   5.458   2.481   3.652  0.3453  0.3778  0.5451
  518TP3     H2 1567   5.385   2.348   3.652 -1.7628  1.4870  0.4417
  519TP3      O 1568   1.670   1.393   4.226 -0.4930 -0.3817 -0.1530
  519TP3     H1 1569   1.596   1.342   4.259 -2.0613  1.5900 -0.4498
  519TP3     H2 1570   1.660   1.479   4.267  0.3569  0.5979 -1.8914
  520TP3      O 1571   1.371   0.347   3.860 -0.3517 -0.5079  0.0911
  520TP3     H1 1572   1.416   0.264   3.878 -2.2631 -1.2945  1.6254
  520TP3     H2 1573   1.280   0.322   3.845 -1.2284  1.3712  1.7683
  521TP3      O 1574   0.627   0.833   3.390  0.0470 -0.0144  0.2880
  521TP3     H1 1575   0.719   0.834   3.361  0.4270 -1.3495  1.3279
  521TP3     H2 1576   0.611   0.742   3.416 -1.3702  0.3441  0.7656
  522TP3      O 1577   2.112   1.395   5.882  0.5226  1.1830  0.3799
  522TP3     H1 1578   2.156   1.353   5.956 -1.8051 -0.9585  0.6512
  522TP3     H2 1579   2.036   1.438   5.920 -0.7810 -0.0582 -0.7510
  523TP3      O 1580   1.063   2.375   4.982 -0.0371 -0.2739 -0.6252
  523TP3     H1 1581   1.146   2.327   4.983  0.1419 -0.0009  1.4049
  523TP3     H2 1582   1.084   2.462   5.017 -0.7876  0.5786 -2.1565
  524TP3      O 1583   1.800   1.492   5.190  0.4620  0.0466 -0.0702
  524TP3     H1 1584   1.822   1.410   5.145  0.1516 -0.1970  0.2127
  524TP3     H2 1585   1.796   1.467   5.282 -2.7154 -0.3531 -0.2173
  525TP3      O 1586   1.111   1.567   4.169 -0.4173  0.6479  0.7275
  525TP3     H1 1587   1.030   1.526   4.198  0.0258 -3.3557 -2.7549
  525TP3     H2 1588   1.085   1.655   4.143 -3.1225  0.2775  1.7955
  526TP3      O 1589   0.644   0.840   4.711 -0.3027 -0.1592  0.2985
  526TP3     H1 1590   0.696   0.917   4.733 -1.1604  1.0924 -1.7868
  526TP3     H2 1591   0.556   0.861   4.741 -0.2575 -1.0213  1.1099
  527TP3      O 1592   0.175   5.801   4.421  0.0187 -0.3849  0.3397
  527TP3     H1 1593   0.139   5.779   4.507  1.2503  0.5583  1.1262
  527TP3     H2 1594   0.126   5.878   4.393  0.2652 -0.1093  0.6516
  528TP3      O 1595   1.045   1.205   0.041 -0.7406 -0.3302  0.3345
  528TP3     H1 1596   0.996   1.158   0.108 -2.0343 -0.3150 -0.5485
  528TP3     H2 1597   1.051   1.295   0.075 -2.3230 -0.0583  0.0131
  529TP3      O 1598   0.494   0.909   4.132 -0.0002  0.1479 -0.7843
  529TP3     H1 1599   0.532   0.935   4.216 -1.4923 -3.3916  1.2055
  529TP3     H2 1600   0.401   0.932   4.139 -0.4182 -1.4386 -0.8215
  530TP3      O 1601   6.000   1.225   5.080  0.2161  0.5507  0.0485
  530TP3     H1 1602   5.923   1.196   5.130 -0.1651  0.0013 -0.8359
  530TP3     H2 1603   6.065   1.157   5.096 -0.2196 -0.1187 -0.9260
  531TP3      O 1604   1.039   1.171   4.012  0.1163 -0.3447 -0.4001
  531TP3     H1 1605   1.124   1.173   3.967  0.1236  1.4358 -0.3839
  531TP3     H2 1606   0.987   1.236   3.966 -0.7884 -0.4313  0.4828
  532TP3      O 1607   0.319   1.346   3.757 -0.1126  0.0823  0.4540
  532TP3     H1 1608   0.333   1.441   3.757  2.9787 -0.2545  1.7364
  532TP3     H2 1609   0.248   1.332   3.820 -1.5936  1.5671 -0.7801
  533TP3      O 1610   0.713   1.509   3.723  0.2339  0.2892 -0.5098
  533TP3     H1 1611   0.629   1.536   3.687 -1.2748 -1.0573  1.7254
  533TP3     H2 1612   0.719   1.557   3.806  0.8797 -0.8705  0.1321
  534TP3      O 1613   0.696   0.426   4.800  0.6073 -0.6601  0.2584
  534TP3     H1 1614   0.673   0.487   4.871  0.8942 -1.5576  1.1571
  534TP3     H2 1615   0.640   0.451   4.727 -0.2041 -0.1399  1.0426
  535TP3      O 1616   1.142   1.228   4.525 -0.1334 -0.3457  0.8713
  535TP3     H1 1617   1.113   1.171   4.453  2.1177  1.2436 -1.4779
  535TP3     H2 1618   1.085   1.205   4.598 -0.7850 -3.9848 -0.5831
  536TP3      O 1619   1.074   1.697   4.717 -0.8168 -0.1417  0.1914
  536TP3     H1 1620   0.981   1.711   4.732 -0.9049  0.5475 -0.9129
  536TP3     H2 1621   1.101   1.639   4.788 -2.1462 -0.6209  0.3255
  537TP3      O 1622   2.516   1.083   4.366 -0.4316  0.6283  0.1128
  537TP3     H1 1623   2.475   1.018   4.422 -0.4825  1.4019  0.9998
  537TP3     H2 1624   2.447   1.112   4.307 -0.3941 -0.1454 -0.3255
  538TP3      O 1625   5.974   1.833   4.735 -0.1232  0.4458 -0.3878
  538TP3     H1 1626   5.969   1.741   4.761  1.9966  0.2982 -0.3663
  538TP3     H2 1627   6.040   1.872   4.792 -1.9213  2.3727  0.5388
  539TP3      O 1628   0.080   0.647   5.283 -0.0453  0.0507  1.1897
  539TP3     H1 1629   0.103   0.566   5.238  1.3735  1.0603  0.0172
  539TP3     H2 1630   0.024   0.694   5.222 -2.0391 -0.5867  2.4190
  540TP3      O 1631   2.356   1.043   4.978  0.9939 -0.5744 -0.0983
  540TP3     H1 1632   2.375   1.100   5.053  1.8913  0.4634 -1.0904
  540TP3     H2 1633   2.356   1.101   4.903 -1.1453 -1.3805 -0.8048
  541TP3      O 1634   0.553   5.093   4.546  0.2758 -0.5645  0.1087
  541TP3     H1 1635   0.478   5.046   4.583  0.0143  0.0660  0.4057
  541TP3     H2 1636   0.604   5.026   4.501 -0.1283 -1.1141  0.4561
  542TP3      O 1637   5.538   0.077   5.651  0.3196  0.4496 -0.3174
  542TP3     H1 1638   5.522   0.024   5.728  0.9701 -2.7833 -2.2160
  542TP3     H2 1639   5.613   0.133   5.675 -0.1620  0.2988  1.6572
  543TP3      O 1640   0.651   0.683   4.456  0.0796  0.1222 -0.3365
  543TP3     H1 1641   0.577   0.701   4.398 -1.9387  0.9247  2.3143
  543TP3     H2 1642   0.636   0.738   4.533  4.2189  1.4071 -0.1876
  544TP3      O 1643   1.787   0.352   4.669  0.1253  0.2318 -0.1424
  544TP3     H1 1644   1.712   0.335   4.612 -0.1403  1.2255 -0.1247
  544TP3     H2 1645   1.803   0.446   4.659  0.0381  0.4457  1.4538
  545TP3      O 1646   1.118   5.960   3.571 -0.1470  0.1840 -0.2714
  545TP3     H1 1647   1.197   6.000   3.536 -0.1890 -0.1324 -0.7330
  545TP3     H2 1648   1.150   5.896   3.635  0.0491 -0.8956 -1.4062
  546TP3      O 1649   6.022   0.230   5.497  0.2432 -0.0782 -0.8174
  546TP3     H1 1650   5.960   0.300   5.474  0.2658  0.4409  0.6517
  546TP3     H2 1651   5.969   0.150   5.494 -0.0381  0.1219 -1.4204
  547TP3      O 1652   0.167   2.125   3.947 -0.2933  1.0103 -0.4775
  547TP3     H1 1653   0.122   2.097   4.026 -0.4867  1.6858 -0.3476
  547TP3     H2 1654   0.234   2.057   3.933 -1.8950 -0.4923 -1.1833
  548TP3      O 1655   0.271   0.709   3.822  0.5208 -0.4109  0.5863
  548TP3     H1 1656   0.208   0.739   3.757  0.2109 -0.2317  0.9626
  548TP3     H2 1657   0.357   0.734   3.787  0.2678  1.2511  1.0442
  549TP3      O 1658   1.477   1.036   5.602  1.2360  0.0848  0.0016
  549TP3     H1 1659   1.517   1.087   5.673 -0.8926  0.3981  1.0827
  549TP3     H2 1660   1.461   0.950   5.641 -0.0392  0.2903 -0.0340
  550TP3      O 1661   5.469   5.157   4.642 -0.2287 -0.1907  0.3852
  550TP3     H1 1662   5.461   5.095   4.714 -1.8583  0.1236  0.5312
  550TP3     H2 1663   5.389   5.210   4.648 -0.9259 -0.8124 -2.2635
  551TP3      O 1664   1.099   5.773   3.998  0.9871  0.0508  0.0889
  551TP3     H1 1665   1.035   5.702   3.998  1.1883 -0.1817  2.2457
  551TP3     H2 1666   1.052   5.848   4.036  0.8952  1.0254 -1.7952
  552TP3      O 1667   1.224   1.214   5.294 -0.0647  0.0377 -0.1079
  552TP3     H1 1668   1.315   1.205   5.322  0.3479  0.7916 -1.1858
  552TP3     H2 1669   1.184   1.129   5.317  0.5381  0.1902  1.6321
  553TP3      O 1670   0.416   2.320   4.718 -0.3695  0.5550 -0.0332
  553TP3     H1 1671   0.397   2.412   4.701  0.8866  1.2070  1.7920
  553TP3     H2 1672   0.351   2.294   4.783 -0.3106  0.3555 -0.0532
  554TP3      O 1673   1.364   1.348   4.897  0.0572 -0.2117  0.0392
  554TP3     H1 1674   1.355   1.379   4.807  0.7266  0.2803  0.1287
  554TP3     H2 1675   1.421   1.413   4.938  0.2581 -0.7665  0.6492
  555TP3      O 1676   5.485   0.903   4.745  0.0864  0.0149 -0.2879
  555TP3     H1 1677   5.465   0.995   4.757  2.1451  0.5812 -0.6836
  555TP3     H2 1678   5.542   0.901   4.667  0.7608 -1.4678  0.1972
  556TP3      O 1679   1.430   0.001   3.697 -0.2643  0.1085  0.3519
  556TP3     H1 1680   1.385  -0.040   3.771 -0.4300 -1.3756 -0.5507
  556TP3     H2 1681   1.499   0.053   3.738 -0.6130 -0.3481  1.5765
  557TP3      O 1682   1.264   0.170   3.273  0.0212 -0.0938 -0.7264
  557TP3     H1 1683   1.275   0.082   3.308  1.0143  0.8634  1.5709
  557TP3     H2 1684   1.316   0.170   3.193  1.5612 -1.0949  0.2069
  558TP3      O 1685   1.173   2.005   4.346 -0.0969 -0.2071  0.0017
  558TP3     H1 1686   1.165   2.052   4.429  1.0069 -1.4011  0.8290
  558TP3     H2 1687   1.220   2.065   4.288  0.7942 -0.0524  0.8571
  559TP3      O 1688   5.269   1.364   5.058  0.1328 -0.0590  0.0713
  559TP3     H1 1689   5.207   1.375   5.131 -1.8332 -0.1540 -1.5012
  559TP3     H2 1690   5.252   1.439   5.001  1.6113 -0.0136 -0.3485
  560TP3      O 1691   0.228   0.869   4.220 -0.1617  0.3367 -0.4114
  560TP3     H1 1692   0.190   0.953   4.195  0.7920  0.8512 -0.1511
  560TP3     H2 1693   0.152   0.811   4.231 -0.8867  1.3542  0.1481
  561TP3      O 1694   5.982   0.061   5.184  0.6355  0.1206 -0.0680
  561TP3     H1 1695   6.000  -0.024   5.225  0.2767 -0.8046 -1.7597
  561TP3     H2 1696   5.900   0.048   5.135  0.3637  1.5635 -0.0614
  562TP3      O 1697   0.689   0.503   5.252 -0.0061 -0.3583  1.0726
  562TP3     H1 1698   0.761   0.441   5.267  0.7472 -0.1590 -1.2705
  562TP3     H2 1699   0.611   0.457   5.283  0.8254 -1.5302  1.5134
  563TP3      O 1700   5.628   1.031   5.021  0.0084 -0.3808  0.3562
  563TP3     H1 1701   5.703   1.014   4.964 -0.8434 -3.4821 -0.0159
  563TP3     H2 1702   5.560   1.064   4.962  0.2233 -0.1402  0.2368
  564TP3      O 1703   0.666   1.642   4.375  0.0456  0.5370 -0.0024
  564TP3     H1 1704   0.688   1.601   4.459 -1.4789 -2.3430 -0.8892
  564TP3     H2 1705   0.577   1.675   4.387 -0.9710 -1.6450 -0.9576
  565TP3      O 1706   5.551   1.724   4.807  0.3226 -0.0627  0.5396
  565TP3     H1 1707   5.527   1.670   4.882 -2.2088  0.6006  0.2767
  565TP3     H2 1708   5.514   1.810   4.826 -0.3318  0.1391 -1.4197
  566TP3      O 1709   0.840   0.723   4.192  0.6887 -0.2856 -0.2794
  566TP3     H1 1710   0.854   0.818   4.197 -0.4861 -0.0086 -1.6732
  566TP3     H2 1711   0.805   0.700   4.278  0.0757  0.7184 -0.2414
  567TP3      O 1712   0.547   0.338   4.549  0.5300 -0.7475  0.4502
  567TP3     H1 1713   0.484   0.357   4.480  0.7135  2.3933  1.0150
  567TP3     H2 1714   0.496   0.296   4.618 -0.2387 -1.2370 -0.4006
  568TP3      O 1715   0.823   0.245   4.980  0.0828  0.2859 -0.9938
  568TP3     H1 1716   0.792   0.287   4.899  0.6691 -0.5131 -1.6509
  568TP3     H2 1717   0.750   0.253   5.040  0.7545  3.9436 -0.3978
  569TP3      O 1718   1.530   5.372   5.172  0.0755 -0.7164  0.1405
  569TP3     H1 1719   1.567   5.366   5.260 -2.2944 -1.2177  1.2070
  569TP3     H2 1720   1.514   5.281   5.146 -2.1056 -0.5225  0.5900
  570TP3      O 1721   0.846   0.692   3.572  0.5068 -0.3337 -0.0249
  570TP3     H1 1722   0.758   0.667   3.542 -1.0889  3.2866  1.1164
  570TP3     H2 1723   0.848   0.662   3.663  0.5214 -0.4901 -0.0749
  571TP3      O 1724   1.736   0.967   4.409  0.1290  0.1213 -0.2087
  571TP3     H1 1725   1.754   0.877   4.382 -1.2340 -0.8149  1.7216
  571TP3     H2 1726   1.648   0.985   4.376 -0.6154 -0.2112  1.4793
  572TP3      O 1727   0.417   0.672   5.173  0.8804  0.5482  0.0028
  572TP3     H1 1728   0.448   0.592   5.216  0.8955  0.5904  0.0706
  572TP3     H2 1729   0.494   0.705   5.127  0.5991 -0.0687 -0.9315
  573TP3      O 1730   0.953  -0.017   4.111 -0.1292 -0.3092 -0.0215
  573TP3     H1 1731   0.884  -0.016   4.177 -2.6963  0.1795 -2.5221
  573TP3     H2 1732   0.983   0.073   4.105 -3.1678  0.7331 -2.4950
  574TP3      O 1733   0.688   1.882   5.671  0.1370  0.3245 -0.5765
  574TP3     H1 1734   0.736   1.854   5.749 -1.8595 -2.1837 -0.1329
  574TP3     H2 1735   0.706   1.814   5.606 -2.2095 -0.3501 -0.5964
  575TP3      O 1736   5.928   0.166   3.583 -0.0946 -0.3397 -0.0482
  575TP3     H1 1737   5.842   0.133   3.557  0.0360 -1.6386  1.1020
  575TP3     H2 1738   5.986   0.140   3.511 -0.2705 -1.3991  0.1762
  576TP3      O 1739   5.782   1.193   5.247  0.4214 -0.0602 -0.0194
  576TP3     H1 1740   5.711   1.143   5.207 -0.1653 -0.2500  1.2215
  576TP3     H2 1741   5.750   1.215   5.334  1.4949  0.7147  0.2015
  577TP3      O 1742   1.182   1.126   5.017  0.0435 -0.1787 -0.2718
  577TP3     H1 1743   1.133   1.162   5.091 -1.7991 -1.3899 -0.8358
  577TP3     H2 1744   1.247   1.194   4.996  2.3097 -0.7406  3.9169
  578TP3      O 1745   1.013   0.305   4.020  0.0470 -0.2755 -0.5363
  578TP3     H1 1746   0.961   0.368   4.070 -0.6464 -0.8573 -0.5022
  578TP3     H2 1747   1.066   0.260   4.086 -0.2199 -0.4403 -0.4350
  579TP3      O 1748   1.925   1.073   4.702 -0.4562  0.3026  0.7583
  579TP3     H1 1749   1.947   0.982   4.684 -0.1087  0.2514  1.4215
  579TP3     H2 1750   1.829   1.076   4.701 -0.4586  0.0924 -0.0295
  580TP3      O 1751   2.291   2.292   4.555 -0.2771 -0.5373 -0.6888
  580TP3     H1 1752   2.300   2.246   4.639  0.7054  0.0653 -0.4569
  580TP3     H2 1753   2.219   2.354   4.571  1.3999  1.2254  0.5092
  581TP3      O 1754   0.168   1.891   4.919  0.5638 -0.2403  0.0917
  581TP3     H1 1755   0.263   1.876   4.913  0.6454 -0.4585  1.5860
  581TP3     H2 1756   0.142   1.845   4.999 -0.7227  0.2612 -0.0237
  582TP3      O 1757   1.491   1.513   5.914  0.5606 -0.4178  0.1561
  582TP3     H1 1758   1.545   1.499   5.992  1.7386 -1.6732 -0.8594
  582TP3     H2 1759   1.434   1.436   5.910  1.3373 -0.9607 -0.8687
  583TP3      O 1760   3.046   0.194   3.563  0.8368  0.2552  0.3391
  583TP3     H1 1761   3.011   0.244   3.637  0.8460  0.4224  0.2287
  583TP3     H2 1762   3.136   0.223   3.555  0.4580  1.2127 -0.5873
  584TP3      O 1763   1.318   1.697   3.809 -0.8002  0.5960  0.0751
  584TP3     H1 1764   1.244   1.643   3.780 -0.2766  0.3584 -0.8811
  584TP3     H2 1765   1.338   1.666   3.897  0.6585 -2.1137 -1.0884
  585TP3      O 1766   5.611   1.334   4.644 -0.1560  0.0895  0.3496
  585TP3     H1 1767   5.658   1.270   4.697  1.5549  1.0449  0.0937
  585TP3     H2 1768   5.673   1.407   4.635  0.1288 -0.4238 -3.7965
  586TP3      O 1769   1.518   5.744   4.543 -0.3028 -0.0657 -0.2199
  586TP3     H1 1770   1.578   5.777   4.610  3.1692 -3.1553 -1.4588
  586TP3     H2 1771   1.540   5.794   4.464 -0.5354 -0.0962 -0.3044
  587TP3      O 1772   0.519   0.870   5.732 -0.0834 -0.1468 -0.1066
  587TP3     H1 1773   0.474   0.940   5.684 -0.7414  0.4168  1.2713
  587TP3     H2 1774   0.505   0.792   5.679 -2.0058  0.1749 -0.1430
  588TP3      O 1775   0.618   1.324   3.318  1.1028  0.2562 -0.3951
  588TP3     H1 1776   0.626   1.344   3.225 -1.7735  1.1174 -0.5506
  588TP3     H2 1777   0.537   1.366   3.345  1.9602  0.2397  2.5935
  589TP3      O 1778   2.107   2.549   5.323  0.7133  0.2947 -0.2282
  589TP3     H1 1779   2.118   2.583   5.234 -0.7816 -0.5446 -0.7728
  589TP3     H2 1780   2.127   2.624   5.379  1.2547  0.9656 -1.2658
  590TP3      O 1781   1.960   0.657   4.917  0.0112  0.1543 -0.0694
  590TP3     H1 1782   2.002   0.734   4.879 -2.2987  1.2355 -0.6220
  590TP3     H2 1783   1.899   0.627   4.850 -0.7477 -0.7761  0.9885
  591TP3      O 1784   5.285   0.264   3.611  0.3245  0.5233 -0.0178
  591TP3     H1 1785   5.304   0.322   3.685 -2.9151  0.7373  0.7739
  591TP3     H2 1786   5.292   0.320   3.534 -0.4605  1.3979  0.5354
  592TP3      O 1787   1.959   1.468   2.990 -0.5937 -0.6047  0.1897
  592TP3     H1 1788   1.875   1.442   3.029 -1.1964  2.7722  1.4603
  592TP3     H2 1789   1.940   1.480   2.897 -0.4653 -3.4794 -0.3167
  593TP3      O 1790   0.755   1.045   4.885 -0.1902  0.1294  0.7399
  593TP3     H1 1791   0.727   1.129   4.921 -0.6704 -0.3371  1.4911
  593TP3     H2 1792   0.728   0.981   4.950  0.3638 -0.5933  0.2765
  594TP3      O 1793   0.867   1.024   4.161  0.3585 -0.5737 -0.4764
  594TP3     H1 1794   0.783   1.046   4.121  0.1816 -1.4440 -0.5979
  594TP3     H2 1795   0.931   1.075   4.110 -0.1843  1.0526  0.4066
  595TP3      O 1796   1.708   1.597   3.491 -0.1376 -0.1216  0.1678
  595TP3     H1 1797   1.668   1.636   3.569 -0.9967  0.4165 -0.5272
  595TP3     H2 1798   1.638   1.547   3.450  0.2023 -0.0962 -0.4574
  596TP3      O 1799   0.462   1.100   4.625 -0.5728  0.5620 -0.2456
  596TP3     H1 1800   0.379   1.099   4.673 -0.8671 -1.0623 -0.7333
  596TP3     H2 1801   0.489   1.192   4.625 -3.1740  1.4065 -1.4762
  597TP3      O 1802   0.879   1.486   4.257  0.2957  0.3033  0.4694
  597TP3     H1 1803   0.800   1.434   4.237  0.2278  0.9452 -1.0209
  597TP3     H2 1804   0.846   1.560   4.307  0.2383 -0.4460  1.5859
  598TP3      O 1805   1.224   1.215   3.631  0.2218  0.4441  0.1966
  598TP3     H1 1806   1.252   1.199   3.721 -0.4596 -0.7342  0.2215
  598TP3     H2 1807   1.233   1.130   3.588  2.4215  1.3908 -1.4144
  599TP3      O 1808   1.186   0.397   4.450  0.2654  0.0175  0.2236
  599TP3     H1 1809   1.127   0.462   4.488  0.5270  1.1238 -1.1822
  599TP3     H2 1810   1.247   0.449   4.397 -0.0697 -1.4352 -1.6578
  600TP3      O 1811   5.811   1.553   4.114 -0.0689 -0.6363 -0.2174
  600TP3     H1 1812   5.746   1.589   4.175  1.6474  0.7849  0.8748
  600TP3     H2 1813   5.873   1.625   4.101  0.5439 -1.4737 -2.3446
  601TP3      O 1814   1.266   0.199   5.555 -0.6157 -0.7972 -0.4040
  601TP3     H1 1815   1.238   0.108   5.546  0.8286 -1.3737  0.5294
  601TP3     H2 1816   1.344   0.206   5.499 -0.5848 -0.1979 -0.2943
  602TP3      O 1817   0.568   1.038   4.360  0.0193  0.0903  0.2091
  602TP3     H1 1818   0.537   1.025   4.449  0.8429  0.4550  0.5543
  602TP3     H2 1819   0.590   1.131   4.355  0.4137 -0.0217 -0.2291
  603TP3      O 1820   1.001   0.737   4.906 -0.8991 -0.0423  0.2552
  603TP3     H1 1821   0.954   0.768   4.829  1.2510  2.7948 -0.1035
  603TP3     H2 1822   1.003   0.813   4.965 -0.8262 -1.5328  2.2966
  604TP3      O 1823   1.688   5.739   5.578  0.2277  0.3233  0.3378
  604TP3     H1 1824   1.606   5.693   5.594  1.2971 -1.8370 -0.0658
  604TP3     H2 1825   1.663   5.815   5.526 -1.5124 -0.2764  0.2486
  605TP3      O 1826   5.565  -0.007   4.357  0.2878  0.8050 -0.1166
  605TP3     H1 1827   5.475  -0.039   4.353  0.2974  0.3633  1.8986
  605TP3     H2 1828   5.560   0.070   4.414  0.9090  1.9762 -1.5794
  606TP3      O 1829   1.880   0.331   5.770  0.0839 -0.1387 -0.3996
  606TP3     H1 1830   1.884   0.338   5.865  1.1263 -1.4959 -0.3242
  606TP3     H2 1831   1.887   0.422   5.740  1.1578  0.2152  0.7925
  607TP3      O 1832   5.631   0.186   2.994  0.1482  0.1776  0.0099
  607TP3     H1 1833   5.564   0.173   3.060 -0.8845  0.8261 -0.8804
  607TP3     H2 1834   5.701   0.234   3.039 -1.3409  2.3062  0.1965
  608TP3      O 1835   0.418   2.189   4.179 -0.3552  0.4658  0.3014
  608TP3     H1 1836   0.389   2.192   4.270 -1.1369  0.2128  0.0654
  608TP3     H2 1837   0.413   2.097   4.155 -0.8321  0.6136 -0.2052
  609TP3      O 1838   1.143   5.751   5.086 -0.2211  0.2809  0.4570
  609TP3     H1 1839   1.128   5.716   4.998 -0.7660  2.2252 -0.2939
  609TP3     H2 1840   1.213   5.816   5.075 -0.9139  1.2033  1.2489
  610TP3      O 1841   1.199   2.608   5.058  0.1650  0.4476  0.5735
  610TP3     H1 1842   1.174   2.691   5.016 -0.9892 -1.1867 -2.2099
  610TP3     H2 1843   1.294   2.610   5.061  0.3748  0.3955 -2.8951
  611TP3      O 1844   0.405   1.610   0.237 -0.5107  0.6781 -0.3056
  611TP3     H1 1845   0.334   1.643   0.293  0.6507  1.1222  0.9633
  611TP3     H2 1846   0.432   1.528   0.277  0.2908  0.9659 -0.2325
  612TP3      O 1847   0.607   1.158   5.685  0.1196  0.4382  0.0108
  612TP3     H1 1848   0.638   1.112   5.763  0.5896 -0.5427 -0.7308
  612TP3     H2 1849   0.526   1.202   5.713 -1.0340 -1.8289  0.4584
  613TP3      O 1850   0.382   1.294   5.085 -0.0459 -0.8681 -0.3959
  613TP3     H1 1851   0.373   1.286   5.180  0.0123  1.5535 -0.1210
  613TP3     H2 1852   0.375   1.388   5.068 -0.7196 -1.2890 -2.8762
  614TP3      O 1853   1.407   1.204   4.621 -0.2072  0.3751 -0.1819
  614TP3     H1 1854   1.390   1.296   4.641 -1.0637  0.5004 -1.3829
  614TP3     H2 1855   1.342   1.182   4.554  1.6016 -0.3803 -1.7919
  615TP3      O 1856   1.633   5.537   3.275 -0.2059 -0.2614  0.1101
  615TP3     H1 1857   1.705   5.554   3.335  0.3708 -3.8136  0.6965
  615TP3     H2 1858   1.653   5.589   3.198  0.4676  2.3527  1.9356
  616TP3      O 1859   1.154   0.198   4.214  0.3970 -0.1047  0.2178
  616TP3     H1 1860   1.241   0.159   4.225  0.0547 -1.0149 -0.2479
  616TP3     H2 1861   1.141   0.248   4.295  1.0689 -0.5065  0.5901
  617TP3      O 1862   1.299   0.755   4.529  0.1852 -0.3087  0.6540
  617TP3     H1 1863   1.210   0.782   4.507  1.0393  1.4025 -0.9641
  617TP3     H2 1864   1.290   0.712   4.614 -1.9212  1.4847  1.4477
  618TP3      O 1865   1.320   0.872   4.945 -0.1757 -0.0954 -0.2959
  618TP3     H1 1866   1.293   0.945   5.001  0.2113 -0.8294  0.8955
  618TP3     H2 1867   1.414   0.886   4.931 -0.0828 -0.3876  0.0026
  619TP3      O 1868   1.445   1.388   3.615 -0.0953  0.2511 -0.3854
  619TP3     H1 1869   1.489   1.406   3.699 -2.0459  1.0001  0.5321
  619TP3     H2 1870   1.398   1.307   3.630 -1.7559  1.2193 -0.1759
  620TP3      O 1871   0.941   2.341   4.073 -0.0810 -0.1635  0.5503
  620TP3     H1 1872   0.849   2.320   4.089  0.3302 -1.5785  1.2005
  620TP3     H2 1873   0.965   2.287   3.997 -0.5801  2.5312 -1.6923
  621TP3      O 1874   0.785   0.462   4.117 -0.5007  0.2767  0.6823
  621TP3     H1 1875   0.712   0.421   4.162 -1.5077  0.0589 -1.0602
  621TP3     H2 1876   0.777   0.555   4.139 -1.3288  0.2603  0.4934
  622TP3      O 1877   0.802   0.233   3.413  0.0736 -0.5090  0.1751
  622TP3     H1 1878   0.729   0.231   3.475 -1.4269  0.2206 -1.4805
  622TP3     H2 1879   0.880   0.238   3.468 -1.2533  1.8346  2.0097
  623TP3      O 1880   1.207   0.983   4.733 -0.0001  0.3805 -0.3494
  623TP3     H1 1881   1.299   0.996   4.710  0.0654 -0.7179 -0.7587
  623TP3     H2 1882   1.209   0.947   4.822  0.1505 -2.2034 -1.3175
  624TP3      O 1883   0.189   1.079   0.027  0.4436  0.3138 -0.0285
  624TP3     H1 1884   0.175   0.985   0.038  1.9300  0.0987  0.1466
  624TP3     H2 1885   0.256   1.086  -0.041  0.3483  1.2552 -0.0414
  625TP3      O 1886   5.841   1.295   4.356  0.3676 -0.2215  0.1187
  625TP3     H1 1887   5.814   1.380   4.322  0.5369 -0.2738 -0.1530
  625TP3     H2 1888   5.789   1.283   4.436  0.5607  0.2628  0.3153
  626TP3      O 1889   0.651   1.255   5.013 -0.2821  0.0163  0.0605
  626TP3     H1 1890   0.561   1.232   5.036 -0.2342  0.7038  0.9937
  626TP3     H2 1891   0.688   1.292   5.094  0.6148  0.3967 -0.5070
  627TP3      O 1892   1.897   5.689   4.546 -0.0956  0.0373 -0.1103
  627TP3     H1 1893   1.835   5.714   4.477  0.0306 -0.5246 -0.4358
  627TP3     H2 1894   1.981   5.725   4.517 -0.1251  0.1690 -0.0338
  628TP3      O 1895   5.806   0.544   4.689 -0.7614 -0.3499 -0.6767
  628TP3     H1 1896   5.795   0.490   4.610 -0.3370 -1.1444 -0.2055
  628TP3     H2 1897   5.742   0.614   4.679 -0.0837  0.0954 -2.1674
  629TP3      O 1898   1.566   1.807   4.654  0.0293  0.4333  0.5847
  629TP3     H1 1899   1.476   1.784   4.675 -0.0394  0.6956  0.5814
  629TP3     H2 1900   1.577   1.895   4.690 -0.5757  1.5560 -1.7615
  630TP3      O 1901   5.847   0.424   5.447  0.7059  0.3817  0.4813
  630TP3     H1 1902   5.874   0.506   5.487  0.9496 -0.5027  2.2072
  630TP3     H2 1903   5.753   0.417   5.465  0.8880 -0.1940  1.2860
  631TP3      O 1904   0.973   1.137   4.722 -0.2285  0.2567  0.0042
  631TP3     H1 1905   0.895   1.097   4.760 -0.0946  0.0813  0.0947
  631TP3     H2 1906   1.046   1.086   4.758 -0.1154 -0.0600 -0.6661
  632TP3      O 1907   1.283   0.336   5.041  0.1523 -0.2466  0.6348
  632TP3     H1 1908   1.229   0.365   4.967  0.2832 -0.9614  0.2531
  632TP3     H2 1909   1.253   0.247   5.059 -0.4296  0.1888  1.9619
  633TP3      O 1910   0.308   0.410   4.374  0.1727 -0.5779  0.2307
  633TP3     H1 1911   0.224   0.409   4.328 -0.2885  0.2170  1.0123
  633TP3     H2 1912   0.317   0.500   4.406  0.6042 -1.0098  1.4097
  634TP3      O 1913   5.786   0.835   4.583  0.4381 -0.2572 -0.3532
  634TP3     H1 1914   5.827   0.882   4.511  0.7924 -0.7286 -0.4623
  634TP3     H2 1915   5.712   0.790   4.542  0.3455 -0.1294 -0.3273
  635TP3      O 1916   0.353   2.583   4.703  0.3341  0.0299  0.9125
  635TP3     H1 1917   0.384   2.660   4.750 -0.8054 -0.4078  2.4392
  635TP3     H2 1918   0.263   2.603   4.679  0.6276 -0.0923 -0.3836
  636TP3      O 1919   0.300   5.954   3.782 -0.5848 -0.6010  0.2673
  636TP3     H1 1920   0.312   5.860   3.799 -0.6100 -0.1847  3.0813
  636TP3     H2 1921   0.284   5.992   3.868 -1.4122  1.9056 -0.8897
  637TP3      O 1922   1.697   0.687   4.351 -0.1465 -0.3235  0.1028
  637TP3     H1 1923   1.633   0.658   4.287 -1.0701 -0.0302  0.8712
  637TP3     H2 1924   1.779   0.694   4.302 -0.3235 -2.2223 -0.5669
  638TP3      O 1925   1.305   0.589   4.305 -0.1234 -0.5795 -0.5116
  638TP3     H1 1926   1.252   0.642   4.246 -1.9878 -0.5225  1.1041
  638TP3     H2 1927   1.306   0.638   4.387  0.6789 -1.6035  0.1233
  639TP3      O 1928   5.365   1.066   3.423 -0.6386 -0.0767  0.2748
  639TP3     H1 1929   5.404   1.079   3.509 -2.4326  1.4445  0.9310
  639TP3     H2 1930   5.367   1.153   3.382 -0.5084 -0.6207 -0.9064
  640TP3      O 1931   0.743   2.773   4.562 -0.2575 -0.1520 -0.0920
  640TP3     H1 1932   0.836   2.751   4.557 -0.2475 -0.1131 -0.0723
  640TP3     H2 1933   0.713   2.732   4.643 -0.3536 -0.5295 -0.3150
  641TP3      O 1934   0.049   5.907   5.784  0.0232  0.0936  0.1623
  641TP3     H1 1935   0.013   5.840   5.843 -0.1389 -0.8722 -0.9816
  641TP3     H2 1936   0.041   5.989   5.832 -0.7933 -0.5584  1.1761
  642TP3      O 1937   1.720   0.560   5.067 -0.5378 -0.6783 -0.3884
  642TP3     H1 1938   1.708   0.543   4.973  0.4795 -1.7124 -0.3516
  642TP3     H2 1939   1.667   0.494   5.110  1.3855 -2.2239 -0.2553
  643TP3      O 1940   1.331   1.346   0.175 -0.1466 -0.1252 -0.7622
  643TP3     H1 1941   1.351   1.255   0.194  1.4945  0.2952 -0.3406
  643TP3     H2 1942   1.341   1.391   0.259 -2.4293  0.2332 -0.6247
  644TP3      O 1943   0.423   0.345   0.448  0.1196 -0.5484  0.0519
  644TP3     H1 1944   0.346   0.383   0.490 -0.1537 -0.0821 -0.8383
  644TP3     H2 1945   0.422   0.253   0.475 -0.3828 -0.3967  0.5737
  645TP3      O 1946   2.190   1.019   5.853  0.3433 -0.7566  0.5981
  645TP3     H1 1947   2.248   0.973   5.913  0.1840 -0.7595  0.7489
  645TP3     H2 1948   2.104   1.016   5.895  0.3275 -0.3399  0.6054
  646TP3      O 1949   0.146   1.692   5.113  0.2707  0.5995 -0.0670
  646TP3     H1 1950   0.223   1.640   5.091  2.4946  3.7910 -0.3926
  646TP3     H2 1951   0.147   1.697   5.209  0.4471  0.6163 -0.0699
  647TP3      O 1952   2.163   5.935   0.208  0.8718  0.2293  0.7101
  647TP3     H1 1953   2.139   5.971   0.123  1.9898  1.3069  0.8363
  647TP3     H2 1954   2.107   5.981   0.270 -0.7691 -1.3613  0.5106
  648TP3      O 1955   1.236   0.550   0.945  0.6321 -0.0839  0.7710
  648TP3     H1 1956   1.282   0.503   1.015 -0.1627 -1.9759  0.0830
  648TP3     H2 1957   1.146   0.558   0.978 -0.1933 -2.5000 -0.6200
  649TP3      O 1958   0.656   1.373   5.283  0.4072 -0.0019 -0.2061
  649TP3     H1 1959   0.707   1.326   5.348  0.2711  1.2714  0.8533
  649TP3     H2 1960   0.565   1.362   5.312  0.1525 -1.1559 -1.3513
  650TP3      O 1961   0.618   1.021   5.936  0.3973  0.5899  0.6080
  650TP3     H1 1962   0.706   0.993   5.961  0.9102  2.0001  0.4842
  650TP3     H2 1963   0.592   0.958   5.868  1.7219  0.7205 -0.0599
  651TP3      O 1964   0.349   1.023   5.010  0.1421 -0.0342  0.6213
  651TP3     H1 1965   0.277   0.996   5.067  0.5765  0.5520  1.4647
  651TP3     H2 1966   0.346   1.118   5.010 -0.1779 -0.0203 -0.7837
  652TP3      O 1967   0.845   0.883   0.033 -0.4275  0.2009 -0.2355
  652TP3     H1 1968   0.841   0.788   0.040 -2.2782  0.1512 -1.4723
  652TP3     H2 1969   0.835   0.914   0.123 -0.4773 -0.7524  0.0985
  653TP3      O 1970   1.783   1.139   5.403 -0.3857 -0.0235  0.9799
  653TP3     H1 1971   1.779   1.088   5.484  0.2780 -1.2047  0.2817
  653TP3     H2 1972   1.711   1.104   5.350  0.5795 -0.8350  0.1735
  654TP3      O 1973   2.141   1.051   0.293  0.5170  0.0684 -0.5170
  654TP3     H1 1974   2.082   1.114   0.336  0.6364  0.7067 -1.2485
  654TP3     H2 1975   2.132   0.971   0.344  0.2015  0.6196  0.3210
  655TP3      O 1976   0.874   1.140   0.483  0.7338 -0.2279  0.1990
  655TP3     H1 1977   0.851   1.052   0.453 -0.9465  0.3282 -0.2307
  655TP3     H2 1978   0.791   1.179   0.510  1.1687  1.8029 -1.1633
  656TP3      O 1979   2.245   0.786   4.861 -0.1144  0.4000  0.4323
  656TP3     H1 1980   2.323   0.751   4.818 -0.0392 -0.5120  1.2802
  656TP3     H2 1981   2.278   0.859   4.913  0.1487  0.1245  0.6552
  657TP3      O 1982   2.392   0.417   5.959 -0.6580 -0.2491  0.7282
  657TP3     H1 1983   2.429   0.383   5.877 -1.3319 -0.5153  0.5208
  657TP3     H2 1984   2.459   0.475   5.994 -1.1686  1.5302 -1.0779
  658TP3      O 1985   1.839   5.321   5.074  0.4398  0.2429 -0.2099
  658TP3     H1 1986   1.883   5.306   5.158  0.4684 -0.6401 -0.3753
  658TP3     H2 1987   1.761   5.371   5.097 -0.5900 -1.6497  0.6180
  659TP3      O 1988   1.817   5.637   4.259 -0.3705 -0.2308  0.1933
  659TP3     H1 1989   1.875   5.563   4.279  0.0152  0.6817  2.8611
  659TP3     H2 1990   1.729   5.599   4.264 -0.2350 -0.3899  2.6266
  660TP3      O 1991   2.171   0.425   0.112  0.1531  0.6157  0.5431
  660TP3     H1 1992   2.139   0.514   0.130 -0.3652  0.2122  1.6663
  660TP3     H2 1993   2.234   0.437   0.040 -0.3896  1.8012  0.2319
  661TP3      O 1994   0.360   1.789   5.494 -0.0397 -0.8417 -0.4090
  661TP3     H1 1995   0.420   1.760   5.426  1.4957  2.0033 -0.4433
  661TP3     H2 1996   0.275   1.797   5.450  1.2284  2.5255 -2.6471
  662TP3      O 1997   1.059   1.920   1.152  0.4047 -1.1443  0.3381
  662TP3     H1 1998   1.027   1.861   1.084  1.7429 -2.0246  0.4316
  662TP3     H2 1999   1.151   1.934   1.129  0.5094 -0.3280  1.1974
  663TP3      O 2000   1.533   0.399   5.171  0.5940  0.4950 -0.4296
  663TP3     H1 2001   1.445   0.391   5.135  0.3010  1.9302 -0.0745
  663TP3     H2 2002   1.523   0.377   5.264  0.6479  0.4724 -0.4289
  664TP3      O 2003   0.750   0.485   5.679  0.3217  1.4626  0.0384
  664TP3     H1 2004   0.837   0.474   5.718  1.0200  0.4169 -1.6891
  664TP3     H2 2005   0.692   0.431   5.734  0.9835  1.2015  0.4975
  665TP3      O 2006   0.053   0.880   0.344  0.0240 -0.7556 -0.1172
  665TP3     H1 2007   0.096   0.965   0.337 -0.9266 -0.1117  1.4050
  665TP3     H2 2008  -0.035   0.895   0.310  0.2091 -1.4482 -0.9398
  666TP3      O 2009   1.905   1.168   0.446 -0.0294  0.1210  0.2316
  666TP3     H1 2010   1.872   1.252   0.477  1.3516  0.9012 -0.3271
  666TP3     H2 2011   1.863   1.104   0.503 -3.9322  0.8023 -1.5619
  667TP3      O 2012   0.941   0.334   5.369  0.2357 -0.2378 -0.6499
  667TP3     H1 2013   0.929   0.275   5.444  0.6584 -0.0573 -0.4363
  667TP3     H2 2014   0.978   0.414   5.408 -0.1412  0.0919 -0.9635
  668TP3      O 2015   1.170   0.473   5.574 -0.4427  0.1406  0.1555
  668TP3     H1 2016   1.215   0.530   5.512 -1.5893  1.8142  0.7819
  668TP3     H2 2017   1.210   0.387   5.561  3.2306  1.5379  0.9599
  669TP3      O 2018   5.205   1.780   5.912 -0.3777  0.1259 -0.1972
  669TP3     H1 2019   5.188   1.851   5.850 -0.8122 -0.2823 -0.5518
  669TP3     H2 2020   5.120   1.741   5.928 -0.0132 -0.9782 -0.8159
  670TP3      O 2021   1.270   1.037   5.932 -0.2846 -0.2547  0.0708
  670TP3     H1 2022   1.229   1.072   6.011  0.4206 -1.5172  1.0493
  670TP3     H2 2023   1.321   0.961   5.963 -0.0524 -0.8384 -1.6070
  671TP3      O 2024   1.647   0.643   5.524  0.3700 -0.0484 -0.7427
  671TP3     H1 2025   1.722   0.589   5.500  1.1375  0.3288  0.6757
  671TP3     H2 2026   1.595   0.587   5.582  0.6903  0.4184  0.0017
  672TP3      O 2027   2.821   0.097   0.334  0.1562 -0.2192  0.2816
  672TP3     H1 2028   2.884   0.085   0.263 -0.6306 -0.5560 -0.3789
  672TP3     H2 2029   2.868   0.067   0.412  1.7906  2.1610  0.3090
  673TP3      O 2030   0.767   1.785   4.751 -0.2171  0.2385 -0.1729
  673TP3     H1 2031   0.780   1.880   4.748 -1.8311  0.5685  1.2815
  673TP3     H2 2032   0.700   1.768   4.685 -1.2860  0.4197  0.8367
  674TP3      O 2033   1.116   1.592   5.626 -0.1540  0.7856  0.2669
  674TP3     H1 2034   1.096   1.599   5.719 -3.2425 -2.1838  0.0012
  674TP3     H2 2035   1.187   1.528   5.621 -1.2017 -0.4402  0.5676
  675TP3      O 2036   2.451   0.744   5.840 -0.3011 -0.3506  0.3049
  675TP3     H1 2037   2.491   0.743   5.753 -0.6800 -1.5769  0.1356
  675TP3     H2 2038   2.515   0.700   5.896 -0.0266  0.4946  0.6872
  676TP3      O 2039   1.141   2.556   0.071 -0.1913 -0.1692  0.0152
  676TP3     H1 2040   1.182   2.476   0.105 -0.7264 -0.1832  0.6518
  676TP3     H2 2041   1.203   2.589   0.006  0.5835 -0.4702  0.5913
  677TP3      O 2042   0.550   1.123   0.984  0.7826  0.3614 -0.3384
  677TP3     H1 2043   0.609   1.048   0.977  1.1169  0.5244  0.6033
  677TP3     H2 2044   0.474   1.089   1.032  1.8087  1.1026  1.8873
  678TP3      O 2045   5.921   2.072   5.901  0.1725  0.1457 -0.6337
  678TP3     H1 2046   5.911   2.167   5.893 -1.3255  0.2036  1.2168
  678TP3     H2 2047   5.972   2.061   5.981 -0.2134 -0.6184 -0.4865
  679TP3      O 2048   5.765   0.882   0.260  0.1382 -0.9589 -0.3732
  679TP3     H1 2049   5.703   0.950   0.287  0.2355 -1.2587  0.6116
  679TP3     H2 2050   5.769   0.821   0.333  2.7861 -0.1274  0.2742
  680TP3      O 2051   0.169   0.801   5.651  0.1840 -0.5989  0.3112
  680TP3     H1 2052   0.097   0.859   5.680 -0.3507 -2.2392  2.6097
  680TP3     H2 2053   0.245   0.832   5.699  1.0411  0.9477 -1.8997
  681TP3      O 2054   0.747   0.332   0.107 -0.2221 -0.1811 -0.2716
  681TP3     H1 2055   0.815   0.274   0.142 -1.4268 -0.8733  1.0110
  681TP3     H2 2056   0.668   0.278   0.106 -1.2072  1.1964  0.2029
  682TP3      O 2057   1.549   0.754   5.296 -0.5778 -0.7133 -0.4696
  682TP3     H1 2058   1.619   0.761   5.231 -1.4542 -0.1941 -1.3695
  682TP3     H2 2059   1.591   0.711   5.371  0.7551 -0.2428 -0.9185
  683TP3      O 2060   0.963   0.884   0.324 -0.8444 -0.3222  0.1723
  683TP3     H1 2061   0.879   0.911   0.361 -0.7285 -1.9823  1.7548
  683TP3     H2 2062   0.981   0.799   0.364  3.0076  1.2093  2.2535
  684TP3      O 2063   1.124   0.968   5.397 -0.3240 -0.1589 -0.5323
  684TP3     H1 2064   1.170   0.901   5.347 -1.1825 -0.3309 -1.1260
  684TP3     H2 2065   1.060   0.919   5.449  0.5731  0.0179  0.7667
  685TP3      O 2066   1.382   5.824   5.712  0.6647 -0.5835 -0.0155
  685TP3     H1 2067   1.456   5.876   5.742  0.5736  0.1390 -0.9853
  685TP3     H2 2068   1.341   5.792   5.792  0.9998  0.4592  0.5977
  686TP3      O 2069   0.932   1.188   5.167 -0.6630 -0.1839  0.1651
  686TP3     H1 2070   0.927   1.283   5.181 -0.9366 -0.1469 -0.1480
  686TP3     H2 2071   0.895   1.150   5.247  0.7947 -0.0751  0.9293
  687TP3      O 2072   1.517   0.948   0.467 -0.0347  0.3555  0.7261
  687TP3     H1 2073   1.457   0.969   0.537  0.6097 -0.5227  1.5709
  687TP3     H2 2074   1.604   0.962   0.505  0.3374 -0.8244  0.3607
  688TP3      O 2075   0.441   1.360   5.831  0.7591 -0.1467  0.7471
  688TP3     H1 2076   0.418   1.413   5.754 -0.7368 -1.2464  0.3849
  688TP3     H2 2077   0.433   1.421   5.905 -2.9042 -0.1919  0.5789
  689TP3      O 2078   5.784   1.755   0.550 -1.5872  0.1354 -0.1345
  689TP3     H1 2079   5.835   1.788   0.476 -0.1545  0.3391  0.8898
  689TP3     H2 2080   5.727   1.688   0.512 -0.3535 -0.3025 -1.3149
  690TP3      O 2081   0.256   2.410   0.203 -0.4681  1.0181  0.3217
  690TP3     H1 2082   0.323   2.365   0.254  0.3661  0.0892 -1.4903
  690TP3     H2 2083   0.301   2.438   0.123 -2.1474  0.6154 -0.8402
  691TP3      O 2084   0.317   3.138   0.968 -0.4136 -0.7319  0.0200
  691TP3     H1 2085   0.334   3.163   0.878  1.0652 -1.5804  0.0430
  691TP3     H2 2086   0.236   3.086   0.964 -2.4807  2.2621 -0.2668
  692TP3      O 2087   1.312   2.991   1.297  0.6033  0.0878  0.3462
  692TP3     H1 2088   1.258   2.922   1.334  1.0164 -0.2984  0.2399
  692TP3     H2 2089   1.249   3.055   1.263  0.2209 -0.0790  0.7285
  693TP3      O 2090   0.674   1.698   0.408 -0.1587 -0.0045 -0.0930
  693TP3     H1 2091   0.642   1.642   0.479 -0.5096  0.6943  0.3177
  693TP3     H2 2092   0.764   1.720   0.433 -1.0644  2.3200  1.5158
  694TP3      O 2093   1.397   1.841   0.567 -0.3639 -0.2009 -0.3037
  694TP3     H1 2094   1.329   1.906   0.546  0.6025  0.8221 -0.3508
  694TP3     H2 2095   1.446   1.832   0.485  0.0760 -0.2946 -0.0284
  695TP3      O 2096   1.541   2.393   0.870  0.1047 -0.5242  0.6835
  695TP3     H1 2097   1.554   2.330   0.800 -1.0794 -1.5734  1.3760
  695TP3     H2 2098   1.568   2.348   0.949 -0.5104 -0.0833  1.1582
  696TP3      O 2099   0.787   2.538   1.190  0.1795 -0.0899  0.0268
  696TP3     H1 2100   0.772   2.620   1.238 -1.9752  0.7071 -1.7933
  696TP3     H2 2101   0.797   2.472   1.258  2.1110  1.6632  1.5682
  697TP3      O 2102   1.288   2.943   5.948 -0.4295 -0.3180 -0.2970
  697TP3     H1 2103   1.203   2.983   5.931 -0.6540 -0.6569  0.0051
  697TP3     H2 2104   1.301   2.953   6.043 -0.2725 -0.5332 -0.2945
  698TP3      O 2105   0.864   3.072   1.387  0.0917  0.2858 -0.2238
  698TP3     H1 2106   0.884   3.057   1.295 -0.0262  1.1015 -0.3892
  698TP3     H2 2107   0.785   3.021   1.403  0.7504 -0.7704 -0.2688
  699TP3      O 2108   0.183   3.237   0.716  0.7638 -0.4787 -0.6190
  699TP3     H1 2109   0.229   3.212   0.636  0.5943  1.0713 -1.2411
  699TP3     H2 2110   0.091   3.225   0.695  0.6828  0.5233 -0.9087
  700TP3      O 2111   2.051   3.739   0.954 -0.1758  0.1728 -0.2344
  700TP3     H1 2112   2.112   3.688   1.008  1.2776  3.5180  1.5755
  700TP3     H2 2113   1.977   3.757   1.012  0.5188  2.1930  0.0761
  701TP3      O 2114   0.354   2.224   1.109  0.0263 -0.6009  0.1474
  701TP3     H1 2115   0.353   2.283   1.185 -0.7132 -2.1811  1.4262
  701TP3     H2 2116   0.407   2.270   1.044  0.3536  0.9923  1.4670
  702TP3      O 2117   1.643   1.215   1.036  0.3793  0.2558  0.4324
  702TP3     H1 2118   1.722   1.162   1.044 -0.0121 -0.5173 -0.6663
  702TP3     H2 2119   1.641   1.267   1.117  1.0424 -1.0319  1.3056
  703TP3      O 2120   0.895   3.649   1.242 -0.2736 -0.8043  0.0106
  703TP3     H1 2121   0.893   3.562   1.283 -0.2136 -1.9370 -2.2181
  703TP3     H2 2122   0.825   3.645   1.176  0.1173  0.6340 -0.5233
  704TP3      O 2123   1.155   3.270   0.806  0.9375 -0.5389 -0.0918
  704TP3     H1 2124   1.188   3.183   0.828 -0.0528 -0.7088  0.7911
  704TP3     H2 2125   1.234   3.322   0.789  1.5443 -1.5459 -0.4389
  705TP3      O 2126   0.547   3.235   0.695 -0.1019  0.2651  0.3929
  705TP3     H1 2127   0.594   3.250   0.777  0.3944 -0.1511  0.1885
  705TP3     H2 2128   0.595   3.285   0.630 -1.0984  1.4405  0.5276
  706TP3      O 2129   1.172   2.958   0.764 -0.5954 -0.2956 -0.0087
  706TP3     H1 2130   1.247   2.915   0.806 -1.2199  0.3888  1.8720
  706TP3     H2 2131   1.209   2.996   0.684  0.9664 -0.3538  0.6439
  707TP3      O 2132   5.915   4.372   0.611 -0.1552 -0.2321 -0.3969
  707TP3     H1 2133   5.878   4.306   0.553  1.7140 -1.0175 -0.7817
  707TP3     H2 2134   5.902   4.337   0.699 -1.4855  0.1490 -0.4309
  708TP3      O 2135   0.108   2.115   0.096  0.5721 -0.7665  0.4447
  708TP3     H1 2136   0.030   2.113   0.152 -0.7752  0.3090 -1.2698
  708TP3     H2 2137   0.164   2.182   0.134 -0.7628  0.6502  0.0210
  709TP3      O 2138   1.733   2.056   0.579 -0.4541 -0.4068  0.2923
  709TP3     H1 2139   1.776   2.076   0.496  0.2044 -2.4419  0.0925
  709TP3     H2 2140   1.714   1.962   0.574 -2.5657 -0.1148  1.4847
  710TP3      O 2141   5.706   1.951   0.707  0.2932 -0.1963 -0.2082
  710TP3     H1 2142   5.661   1.927   0.788 -0.5729  1.1484 -0.2540
  710TP3     H2 2143   5.739   1.868   0.672  1.4615 -0.7269  1.9491
  711TP3      O 2144   1.541   4.610   5.919 -0.8991  0.3094  0.1291
  711TP3     H1 2145   1.559   4.530   5.869 -0.5581  1.6265 -1.9782
  711TP3     H2 2146   1.454   4.637   5.891 -1.2684  0.3974  1.2850
  712TP3      O 2147   4.026   3.757   5.710 -0.4783  0.3333 -0.2875
  712TP3     H1 2148   4.110   3.797   5.730 -1.3214  0.6414  3.1945
  712TP3     H2 2149   4.049   3.672   5.672  1.3491  1.0860 -0.9977
  713TP3      O 2150   2.049   2.397   0.956  0.8544 -0.3181  0.2528
  713TP3     H1 2151   2.090   2.335   0.896  0.3713 -0.8933  0.5066
  713TP3     H2 2152   2.054   2.354   1.041  2.6841  1.0206  0.8966
  714TP3      O 2153   1.376   2.498   0.539  0.3615 -1.0000 -0.5932
  714TP3     H1 2154   1.350   2.411   0.569  2.4085 -1.4397  0.0505
  714TP3     H2 2155   1.403   2.485   0.448 -0.9173 -0.6759 -1.0411
  715TP3      O 2156   5.687   2.820   1.521  0.2321 -0.0176  0.3248
  715TP3     H1 2157   5.657   2.848   1.435  1.0881  1.6421  0.5262
  715TP3     H2 2158   5.630   2.746   1.543 -0.9185  0.4060 -1.0494
  716TP3      O 2159   0.165   3.227   1.244 -0.2184 -0.0579  0.1086
  716TP3     H1 2160   0.241   3.169   1.239 -0.8303 -0.8065 -0.8109
  716TP3     H2 2161   0.201   3.314   1.227  0.6904 -0.1540  1.3936
  717TP3      O 2162   2.367   2.242   1.721  0.3242 -0.7652  0.3032
  717TP3     H1 2163   2.353   2.187   1.644 -0.7589 -2.4294  1.6055
  717TP3     H2 2164   2.407   2.322   1.687  1.9002 -2.3032 -1.7004
  718TP3      O 2165   0.849   1.456   0.616  0.7073  0.1528  0.6960
  718TP3     H1 2166   0.814   1.444   0.527  0.0695  3.7171  0.3216
  718TP3     H2 2167   0.943   1.440   0.606  0.6471  0.4698 -0.6416
  719TP3      O 2168   0.251   2.412   0.545  0.0374  0.1731  0.4901
  719TP3     H1 2169   0.325   2.470   0.566  0.5886  0.1845 -1.2915
  719TP3     H2 2170   0.293   2.334   0.508 -0.8233  0.5003 -1.2937
  720TP3      O 2171   0.395   2.979   5.954  0.1926  0.3929  0.1145
  720TP3     H1 2172   0.363   2.939   5.874  1.6515 -1.5337  0.4404
  720TP3     H2 2173   0.316   2.992   6.007 -0.4667 -1.1435 -0.4291
  721TP3      O 2174   0.988   4.190   2.148 -0.4037 -0.1023  0.0766
  721TP3     H1 2175   1.067   4.225   2.189 -0.1595  0.2397 -0.6625
  721TP3     H2 2176   0.922   4.257   2.164 -0.6495 -0.5542  1.0132
  722TP3      O 2177   0.543   1.875   1.915 -0.4288  0.3328  0.2159
  722TP3     H1 2178   0.582   1.916   1.993 -0.7681  1.5887 -0.2477
  722TP3     H2 2179   0.497   1.947   1.871 -0.1980 -0.3529 -1.1842
  723TP3      O 2180   0.799   3.040   2.563  0.5192  0.0497  0.1099
  723TP3     H1 2181   0.807   2.956   2.518 -1.7064  0.7743 -1.8598
  723TP3     H2 2182   0.792   3.016   2.656  0.9936 -1.8370 -0.2860
  724TP3      O 2183   1.550   3.521   1.191 -0.1190 -0.4641  0.2016
  724TP3     H1 2184   1.576   3.490   1.278  0.7316 -1.7526 -0.4665
  724TP3     H2 2185   1.479   3.461   1.165 -0.0411 -0.3962 -0.1763
  725TP3      O 2186   1.498   1.971   0.090  0.4492 -0.4128  0.4282
  725TP3     H1 2187   1.564   2.037   0.112  2.1515 -2.1824  0.8135
  725TP3     H2 2188   1.500   1.965  -0.005 -0.3966  0.7091  0.3109
  726TP3      O 2189   1.914   1.394   0.621 -0.4984 -0.1755  0.3375
  726TP3     H1 2190   2.002   1.374   0.651 -0.2424  0.5884  0.1094
  726TP3     H2 2191   1.918   1.486   0.594 -0.8936 -0.6305 -1.3849
  727TP3      O 2192   1.436   2.549   0.243  0.8128  0.3370 -0.2585
  727TP3     H1 2193   1.435   2.509   0.157  2.6798  0.4793 -0.3868
  727TP3     H2 2194   1.428   2.643   0.226  0.5241  0.3251 -0.2098
  728TP3      O 2195  -0.024   3.026   1.262  0.7679  0.3162  0.8884
  728TP3     H1 2196   0.037   2.967   1.307  0.6278  0.0213  0.6998
  728TP3     H2 2197   0.021   3.110   1.260  2.1956 -0.4203 -1.2869
  729TP3      O 2198   1.969   1.736   1.638  0.6594 -0.5883  0.2670
  729TP3     H1 2199   1.888   1.776   1.606  2.0333  1.3117 -1.0282
  729TP3     H2 2200   2.018   1.809   1.677  1.9300 -1.6245  0.6700
  730TP3      O 2201   0.793   2.403   0.934  0.3172  0.4707 -0.3523
  730TP3     H1 2202   0.798   2.451   1.017 -0.8864  1.0911 -0.6169
  730TP3     H2 2203   0.708   2.427   0.897  1.5062  1.5284 -2.5800
  731TP3      O 2204   0.130   3.307   0.053 -0.4132 -0.3833  0.1910
  731TP3     H1 2205   0.075   3.286  -0.023 -0.1899 -0.6630  0.1047
  731TP3     H2 2206   0.204   3.356   0.016  1.4929 -3.3742 -0.3151
  732TP3      O 2207   0.766   2.018   0.289 -0.1166  0.0350 -0.3683
  732TP3     H1 2208   0.819   1.957   0.340 -0.5217  0.0986  0.1342
  732TP3     H2 2209   0.694   1.966   0.255 -0.1446  0.1087 -0.4232
  733TP3      O 2210   0.094   2.850   0.718 -0.1338 -0.6226  0.3316
  733TP3     H1 2211   0.143   2.909   0.660  1.1586 -0.5750  1.4177
  733TP3     H2 2212   0.121   2.763   0.690  0.2840 -0.6073  0.6830
  734TP3      O 2213   5.965   3.629   1.850  0.2555  0.2156 -0.1183
  734TP3     H1 2214   5.968   3.624   1.946 -1.8520 -0.6821 -0.0398
  734TP3     H2 2215   5.948   3.721   1.831  1.3011  0.5112  0.3274
  735TP3      O 2216   0.971   1.701   5.920  0.4827  0.2025  0.8967
  735TP3     H1 2217   0.996   1.621   5.966 -1.6367 -0.6216  0.7279
  735TP3     H2 2218   1.041   1.763   5.940  1.9233 -1.5201  1.4589
  736TP3      O 2219   1.937   2.217   1.846 -0.6203 -0.0515 -0.1645
  736TP3     H1 2220   1.868   2.171   1.893 -0.3428 -0.5775 -0.2688
  736TP3     H2 2221   2.018   2.174   1.873 -0.4783 -0.5649 -1.3300
  737TP3      O 2222   1.443   2.849   5.396  0.3198  0.0782 -0.6344
  737TP3     H1 2223   1.536   2.851   5.419  0.4168  1.3858 -1.0651
  737TP3     H2 2224   1.399   2.816   5.474  1.1838 -1.1192 -0.6184
  738TP3      O 2225   0.817   1.653   1.050  0.4531  0.1095 -0.3900
  738TP3     H1 2226   0.841   1.724   0.991 -0.5179 -0.0188 -0.9611
  738TP3     H2 2227   0.825   1.690   1.138  3.5876 -0.1787 -0.4373
  739TP3      O 2228   5.947   3.478   0.389  0.3985 -0.1043  0.2587
  739TP3     H1 2229   5.972   3.389   0.364 -1.1011 -0.1806 -1.1319
  739TP3     H2 2230   5.965   3.531   0.311 -0.7688  0.3910  0.3074
  740TP3      O 2231   5.899   4.439   0.889  0.5658  0.6835  0.3822
  740TP3     H1 2232   5.956   4.367   0.919  0.5130  1.2618  1.9783
  740TP3     H2 2233   5.844   4.458   0.965  1.0346  2.8524  0.2300
  741TP3      O 2234   2.482   2.637   0.908 -0.6858 -0.5096 -0.0032
  741TP3     H1 2235   2.532   2.567   0.867 -1.9915 -0.4255 -1.8960
  741TP3     H2 2236   2.541   2.713   0.909  0.9742 -1.6990  2.6683
  742TP3      O 2237   1.016   3.909   1.819  0.1426  1.0953  0.1877
  742TP3     H1 2238   1.078   3.944   1.883  0.7150 -0.7154  0.6951
  742TP3     H2 2239   0.930   3.917   1.861  0.7007 -2.0414  2.2706
  743TP3      O 2240   0.171   1.490  -0.011 -0.5316 -0.5391 -0.2980
  743TP3     H1 2241   0.252   1.539  -0.025 -0.6887 -0.7420 -2.2460
  743TP3     H2 2242   0.117   1.547   0.043 -0.5236  1.3160 -2.1174
  744TP3      O 2243   2.646   2.231   0.240 -0.2582 -0.1069  0.0904
  744TP3     H1 2244   2.595   2.280   0.305 -0.6829 -0.9554  0.4092
  744TP3     H2 2245   2.694   2.298   0.192 -1.1458  0.6625  0.2408
  745TP3      O 2246   1.033   2.778   1.781  0.6042  0.3067  0.5739
  745TP3     H1 2247   0.970   2.825   1.836  1.1242 -0.0887  1.5191
  745TP3     H2 2248   1.110   2.765   1.836  1.2985  0.2544 -0.3775
  746TP3      O 2249   0.822   3.714   0.142  0.2590  0.3116  0.2662
  746TP3     H1 2250   0.808   3.742   0.232  0.6681  0.4978  0.2737
  746TP3     H2 2251   0.739   3.732   0.097  0.2829  0.8644  0.4409
  747TP3      O 2252   0.605   1.186   0.569 -0.6551 -0.3067  0.6978
  747TP3     H1 2253   0.517   1.187   0.532 -0.9850  1.8121  1.4076
  747TP3     H2 2254   0.599   1.240   0.648  1.5281  1.0957  0.0274
  748TP3      O 2255   2.226   3.700   5.977 -0.2918 -0.0466 -0.3453
  748TP3     H1 2256   2.247   3.607   5.966 -1.1900 -0.2634 -0.3168
  748TP3     H2 2257   2.151   3.701   6.037 -0.3035  0.6949 -0.3563
  749TP3      O 2258   1.143   3.381   1.366 -0.0478 -0.4945 -0.0779
  749TP3     H1 2259   1.172   3.411   1.452 -4.2362  1.9886  0.7410
  749TP3     H2 2260   1.193   3.435   1.305  2.0083 -1.3605  0.7226
  750TP3      O 2261   1.897   2.069   5.908  0.0408 -0.1957  0.2712
  750TP3     H1 2262   1.861   2.155   5.932 -1.0195 -0.1775 -1.2278
  750TP3     H2 2263   1.991   2.078   5.920 -0.1155  0.9727  0.7566
  751TP3      O 2264   5.992   3.619   2.121 -0.4788  0.3592  0.0155
  751TP3     H1 2265   6.013   3.631   2.214  0.5566  1.2320 -0.3141
  751TP3     H2 2266   5.897   3.631   2.116 -1.0817 -2.6618  1.4069
  752TP3      O 2267   0.106   4.133   0.713  0.4141 -0.4871  0.3705
  752TP3     H1 2268   0.154   4.215   0.705 -1.6031  0.6046 -1.2659
  752TP3     H2 2269   0.072   4.134   0.803 -0.2871  0.8978  0.1156
  753TP3      O 2270   0.546   3.214   0.262  0.0141  0.4563  0.5350
  753TP3     H1 2271   0.594   3.293   0.238 -0.6153  0.8749  0.6510
  753TP3     H2 2272   0.586   3.145   0.209 -0.9470  1.2446 -1.2765
  754TP3      O 2273   1.612   1.629   2.039 -0.3506 -0.8050 -0.0825
  754TP3     H1 2274   1.689   1.607   2.091 -0.2051  0.2859  0.1890
  754TP3     H2 2275   1.540   1.628   2.101 -0.6240 -2.1370 -0.3971
  755TP3      O 2276   5.262   0.683   0.128  0.3458  0.4755  0.5919
  755TP3     H1 2277   5.326   0.667   0.197 -1.2856 -0.8601  1.8796
  755TP3     H2 2278   5.279   0.773   0.100  2.5061  0.2936  1.1212
  756TP3      O 2279   0.294   2.574   1.645 -0.0477 -0.1428  0.1768
  756TP3     H1 2280   0.231   2.548   1.578  0.2435 -1.2520  0.3249
  756TP3     H2 2281   0.247   2.640   1.697 -0.9902 -0.7584  0.1290
  757TP3      O 2282   0.394   3.739   1.981  1.3382  0.0362 -0.3328
  757TP3     H1 2283   0.437   3.667   2.027  0.1839 -1.1739 -1.0566
  757TP3     H2 2284   0.451   3.814   1.994  2.1219 -0.7915  1.2156
  758TP3      O 2285   0.755   2.227   1.128  0.0173  0.2221 -0.2465
  758TP3     H1 2286   0.783   2.271   1.048 -1.3495  1.0663 -0.2882
  758TP3     H2 2287   0.830   2.235   1.187  1.0050 -0.3294 -1.3850
  759TP3      O 2288   1.171   2.754   1.086 -0.5126 -0.1397  0.4430
  759TP3     H1 2289   1.160   2.761   1.181 -3.9800  1.9967  0.0535
  759TP3     H2 2290   1.254   2.798   1.069  2.0542 -3.6221  2.6210
  760TP3      O 2291   0.711   1.972   1.072 -0.1325  0.0554  0.0450
  760TP3     H1 2292   0.723   1.923   1.153  0.4162  0.1592  0.0266
  760TP3     H2 2293   0.725   2.064   1.097 -0.7557  0.1692 -0.0029
  761TP3      O 2294   0.568   2.554   0.720 -0.3763 -0.2213  1.0002
  761TP3     H1 2295   0.629   2.531   0.649 -1.2472  2.2389 -0.6897
  761TP3     H2 2296   0.495   2.598   0.675 -0.8259  1.7284  3.4511
  762TP3      O 2297   2.311   3.399   5.647 -0.0390 -0.2602  0.4927
  762TP3     H1 2298   2.393   3.357   5.673 -0.5367 -1.9252 -0.4183
  762TP3     H2 2299   2.330   3.493   5.648  1.6310 -0.5738  1.0783
  763TP3      O 2300   0.276   1.061   5.535  0.7498 -0.0457  0.0629
  763TP3     H1 2301   0.265   0.967   5.519 -0.4230  0.1037 -0.0952
  763TP3     H2 2302   0.195   1.100   5.502  0.5262  0.8531  1.6052
  764TP3      O 2303   1.711   1.511   0.915 -0.0038 -0.5865  0.3327
  764TP3     H1 2304   1.725   1.504   1.010 -1.4795 -0.8269  0.5555
  764TP3     H2 2305   1.616   1.506   0.905  0.2387 -3.1647 -1.3627
  765TP3      O 2306   1.204   3.272   0.150  0.3293  0.1705  0.1954
  765TP3     H1 2307   1.189   3.293   0.058 -0.7985  1.7132  0.6809
  765TP3     H2 2308   1.118   3.284   0.191  0.7168 -0.9391  1.3756
  766TP3      O 2309   0.400   4.032   0.246 -0.5025  0.0327 -0.1500
  766TP3     H1 2310   0.341   4.083   0.301 -1.6898 -1.6802  0.2191
  766TP3     H2 2311   0.390   4.070   0.158 -1.5970  0.2169  0.0481
  767TP3      O 2312   0.487   5.273   0.334 -0.0900 -0.3076 -0.0828
  767TP3     H1 2313   0.412   5.220   0.361 -0.3520  0.4638  0.7467
  767TP3     H2 2314   0.495   5.339   0.402  1.1097 -0.1446 -0.3710
  768TP3      O 2315   1.122   1.735   0.907 -0.0444 -0.3619  0.1621
  768TP3     H1 2316   1.209   1.751   0.871  1.1993 -2.4791  1.9142
  768TP3     H2 2317   1.067   1.804   0.870  2.4519  1.3260 -0.6668
  769TP3      O 2318   0.708   1.533   1.949  0.0158 -0.2469  0.3708
  769TP3     H1 2319   0.743   1.592   2.016 -0.1076  0.7706 -0.4391
  769TP3     H2 2320   0.785   1.508   1.898  0.4472 -2.5814  2.0035
  770TP3      O 2321   1.102   0.618   0.693  0.5672  1.1306 -0.1456
  770TP3     H1 2322   1.010   0.605   0.718  0.3241  1.0681 -1.0470
  770TP3     H2 2323   1.151   0.588   0.770 -0.1729  1.8905  0.6471
  771TP3      O 2324   0.930   1.763   0.386 -0.2420 -0.2550  0.1263
  771TP3     H1 2325   1.008   1.725   0.428  0.2652  0.9082  0.2916
  771TP3     H2 2326   0.965   1.810   0.310 -0.5227  1.7091  1.1430
  772TP3      O 2327   1.420   0.950   0.751 -0.0494 -0.5223 -0.6050
  772TP3     H1 2328   1.437   0.857   0.735 -0.3348 -0.9036  1.1549
  772TP3     H2 2329   1.324   0.957   0.743 -0.1421 -0.6165  0.3146
  773TP3      O 2330   0.627   2.608   0.316  0.7696  0.6274  0.3341
  773TP3     H1 2331   0.546   2.580   0.357  1.3153 -1.5453  0.0334
  773TP3     H2 2332   0.692   2.603   0.387  1.2166 -0.6625 -0.1465
  774TP3      O 2333   2.026   2.912   0.157  0.2934  0.6238  0.6628
  774TP3     H1 2334   2.079   2.846   0.113  0.1645  1.6905 -1.1764
  774TP3     H2 2335   1.936   2.884   0.142  0.2567  0.7103  0.7216
  775TP3      O 2336   1.751   2.315   0.359 -0.5340  0.0167 -0.4083
  775TP3     H1 2337   1.688   2.332   0.430 -1.5295 -0.7573 -1.0862
  775TP3     H2 2338   1.831   2.360   0.387 -1.2876  0.7573  0.6214
  776TP3      O 2339   0.968   2.837   0.897 -0.0294 -0.3597  0.0956
  776TP3     H1 2340   1.002   2.751   0.925  0.0610 -0.4812 -0.3753
  776TP3     H2 2341   1.041   2.876   0.849 -0.0322  0.0330  0.4079
  777TP3      O 2342   2.037   2.763   0.751  0.2531 -0.7532  0.5524
  777TP3     H1 2343   2.002   2.675   0.737 -0.6357 -0.9092  3.1726
  777TP3     H2 2344   2.048   2.769   0.846  0.9189  1.7358  0.3729
  778TP3      O 2345   1.250   2.687   5.860  0.1494  0.1120 -0.0328
  778TP3     H1 2346   1.261   2.777   5.889 -0.1128  0.2444 -0.3372
  778TP3     H2 2347   1.184   2.692   5.790 -1.0590 -0.4959  1.0111
  779TP3      O 2348   0.843   2.973   5.368 -0.1343 -0.3310  0.4616
  779TP3     H1 2349   0.933   2.944   5.360 -0.2540 -0.4761 -0.5252
  779TP3     H2 2350   0.847   3.067   5.350 -0.0736 -0.1785  1.2452
  780TP3      O 2351   1.647   2.750   1.752 -0.5343  0.0971  0.8728
  780TP3     H1 2352   1.624   2.829   1.703  0.0109  0.3777  1.0640
  780TP3     H2 2353   1.565   2.720   1.790 -1.6999 -1.8584 -2.6684
  781TP3      O 2354   1.232   3.463   1.896 -0.0428 -0.3398  0.3019
  781TP3     H1 2355   1.188   3.538   1.856  0.3007 -0.4713 -0.3434
  781TP3     H2 2356   1.325   3.481   1.885  0.0639 -0.2063  1.3968
  782TP3      O 2357   2.486   3.539   1.634 -0.3518 -0.0144 -0.1906
  782TP3     H1 2358   2.438   3.617   1.607  1.4802  1.0147 -0.6086
  782TP3     H2 2359   2.418   3.476   1.658 -1.8795  1.6038 -0.0976
  783TP3      O 2360   0.285   2.813   1.110 -0.2909  0.3379  0.0832
  783TP3     H1 2361   0.216   2.877   1.093 -0.4674  0.6020  1.6373
  783TP3     H2 2362   0.328   2.845   1.190 -0.3920 -1.4678  0.9095
  784TP3      O 2363   2.021   2.394   1.652 -0.0325  0.5854 -0.3659
  784TP3     H1 2364   2.015   2.327   1.719 -1.1213  0.7903 -0.2423
  784TP3     H2 2365   2.000   2.476   1.697  0.8535  0.9624 -0.6057
  785TP3      O 2366   0.998   2.153   1.291  0.2315 -0.4072 -0.2329
  785TP3     H1 2367   1.045   2.137   1.373  0.6116  0.6111 -0.2319
  785TP3     H2 2368   1.019   2.077   1.237 -0.5537 -1.4233  0.8234
  786TP3      O 2369   1.432   3.929   2.201  0.6192  0.1067 -0.5541
  786TP3     H1 2370   1.357   3.984   2.180  0.0320 -0.3511  0.2854
  786TP3     H2 2371   1.473   3.911   2.117  0.0506  0.7338 -0.9756
  787TP3      O 2372   0.228   2.133   0.878 -0.4074  0.1242  0.8115
  787TP3     H1 2373   0.234   2.037   0.879 -1.4062  0.0343  2.7495
  787TP3     H2 2374   0.276   2.162   0.955 -0.6964  1.1336  0.6332
  788TP3      O 2375   1.001   4.008   1.431 -0.2102  0.6782 -0.6397
  788TP3     H1 2376   1.039   4.080   1.481  0.2358 -0.3942  0.6386
  788TP3     H2 2377   1.050   4.008   1.349  0.2502  1.4034 -0.3752
  789TP3      O 2378   1.283   1.940   0.292 -0.6527  0.2276  0.2475
  789TP3     H1 2379   1.364   1.963   0.247 -0.3001 -1.3518  0.0326
  789TP3     H2 2380   1.214   1.965   0.231 -0.2811  0.3525 -0.1239
  790TP3      O 2381   0.651   3.631   1.035 -0.5218 -0.2461  0.0803
  790TP3     H1 2382   0.576   3.651   1.091  0.7767  0.5825  1.6066
  790TP3     H2 2383   0.617   3.571   0.969 -2.3024 -0.6528  1.3111
  791TP3      O 2384   1.257   2.979   0.483  0.0369  1.0554 -0.1464
  791TP3     H1 2385   1.297   3.041   0.422 -0.6520  2.0498  0.3813
  791TP3     H2 2386   1.304   2.897   0.467  0.1421  1.3749 -1.7362
  792TP3      O 2387   1.443   2.420   5.661 -0.3861  0.3268 -0.1230
  792TP3     H1 2388   1.446   2.399   5.568  2.5950  0.6805 -0.2204
  792TP3     H2 2389   1.426   2.336   5.704 -0.5864 -0.0639 -0.9516
  793TP3      O 2390   5.690   3.501   0.434  0.3891  0.2290 -0.3651
  793TP3     H1 2391   5.784   3.491   0.447  0.4221 -0.8287 -1.1913
  793TP3     H2 2392   5.681   3.531   0.344 -0.0374  1.5368  0.0847
  794TP3      O 2393   1.157   2.761   1.368 -0.0355  0.1931 -0.2319
  794TP3     H1 2394   1.105   2.704   1.423  0.1099  0.4175  0.1403
  794TP3     H2 2395   1.246   2.754   1.403 -0.0921  0.9723  0.0902
  795TP3      O 2396   1.423   2.317   1.110  0.3177 -0.5508 -1.1647
  795TP3     H1 2397   1.511   2.338   1.140 -0.7429  1.8234  0.5725
  795TP3     H2 2398   1.405   2.380   1.040 -0.6485  0.3303 -0.1719
  796TP3      O 2399   5.846   3.473   0.690 -0.4839  0.1970 -0.1241
  796TP3     H1 2400   5.869   3.529   0.615 -0.6335 -0.7001 -0.8612
  796TP3     H2 2401   5.750   3.474   0.692 -0.4684  0.6409  0.3852
  797TP3      O 2402   0.821   2.761   1.369 -0.5696  0.6159 -0.6922
  797TP3     H1 2403   0.889   2.709   1.411  0.9207  1.1185 -2.3597
  797TP3     H2 2404   0.827   2.847   1.412  1.5827  1.4196 -2.4346
  798TP3      O 2405   1.707   3.150   1.514  0.0385  0.1498 -0.0141
  798TP3     H1 2406   1.696   3.230   1.463 -0.6758 -0.2192 -0.4671
  798TP3     H2 2407   1.623   3.139   1.560 -0.7276 -1.4783 -1.6629
  799TP3      O 2408   1.431   2.739   1.431  0.2450  0.4369  0.4148
  799TP3     H1 2409   1.446   2.803   1.501  0.7191  2.3935 -1.3946
  799TP3     H2 2410   1.517   2.729   1.389 -0.0892 -0.4924 -0.0676
  800TP3      O 2411   0.188   1.680   1.249  0.0235  0.6257 -0.0987
  800TP3     H1 2412   0.239   1.601   1.264  0.5057  0.9740  0.1609
  800TP3     H2 2413   0.252   1.751   1.261 -0.7452  1.1236  1.2816
  801TP3      O 2414   1.888   2.937   0.588 -0.5896  0.2942 -0.1509
  801TP3     H1 2415   1.930   2.881   0.653 -2.0024 -0.1239  0.4175
  801TP3     H2 2416   1.922   3.025   0.607  1.2306 -0.2441 -0.7182
  802TP3      O 2417   1.583   3.065   0.914 -0.3664  0.3611  0.6005
  802TP3     H1 2418   1.510   3.004   0.924 -0.7922  0.6993 -0.2862
  802TP3     H2 2419   1.575   3.097   0.824  0.5901  0.7750  0.6507
  803TP3      O 2420   1.419   2.219   0.335 -0.4810 -0.0867  0.4869
  803TP3     H1 2421   1.458   2.160   0.399  0.2645 -0.1291 -0.0021
  803TP3     H2 2422   1.481   2.221   0.262 -1.8423 -0.9366 -0.7393
  804TP3      O 2423   1.102   2.463   1.306 -0.3120 -0.5401 -0.2141
  804TP3     H1 2424   1.062   2.526   1.365 -1.3095  0.6684 -2.0995
  804TP3     H2 2425   1.042   2.388   1.305 -0.7896 -0.1544 -0.4283
  805TP3      O 2426   5.416   3.501   1.151  0.5071  0.2286  0.1934
  805TP3     H1 2427   5.496   3.465   1.113  0.6912  0.4883  0.3251
  805TP3     H2 2428   5.447   3.566   1.214  0.2123 -0.2483  0.8502
  806TP3      O 2429   1.110   2.160   0.114 -0.2010  0.0148 -0.4032
  806TP3     H1 2430   1.137   2.238   0.163  0.1911 -0.7191  0.5782
  806TP3     H2 2431   1.028   2.186   0.072 -0.2026  0.8770  0.1031
  807TP3      O 2432   1.718   2.677   1.418  0.3179 -0.3859  0.0954
  807TP3     H1 2433   1.790   2.628   1.377  0.6415  0.9688 -1.0219
  807TP3     H2 2434   1.729   2.660   1.511  0.6128 -2.1576 -0.2082
  808TP3      O 2435   0.439   1.588   5.960  0.7355 -0.2376  0.0863
  808TP3     H1 2436   0.423   1.605   6.053  0.3038  1.6715 -0.2874
  808TP3     H2 2437   0.528   1.618   5.945  0.6107 -0.0153 -0.2258
  809TP3      O 2438   2.073   2.386   0.095 -0.8019  0.6098  0.2143
  809TP3     H1 2439   2.101   2.475   0.073 -0.8514  0.5322 -0.1706
  809TP3     H2 2440   1.988   2.398   0.138 -1.0972  0.7155 -0.3743
  810TP3      O 2441   0.769   2.436   1.784  0.5569 -0.2527 -0.0087
  810TP3     H1 2442   0.831   2.386   1.732  1.3373 -0.2131  0.8560
  810TP3     H2 2443   0.690   2.441   1.729  1.7534  0.8910 -1.7009
  811TP3      O 2444   1.688   3.368   2.374  0.1242 -0.3964 -0.3995
  811TP3     H1 2445   1.772   3.382   2.417 -0.2554 -0.5568  0.4130
  811TP3     H2 2446   1.710   3.359   2.281  0.7456  2.3272 -0.6084
  812TP3      O 2447   1.671   3.911   0.946  0.5890  0.0080 -0.2709
  812TP3     H1 2448   1.606   3.981   0.945  1.7398  1.1289 -1.9986
  812TP3     H2 2449   1.644   3.852   0.877  0.1221 -0.8114  0.5884
  813TP3      O 2450   0.716   3.127   1.782 -0.3813 -0.6488  0.1779
  813TP3     H1 2451   0.702   3.043   1.826  0.0664 -0.6264  0.3693
  813TP3     H2 2452   0.634   3.175   1.796 -1.2856 -1.6559 -1.3196
  814TP3      O 2453   1.723   1.545   0.439  0.4487  0.2228  0.0730
  814TP3     H1 2454   1.657   1.476   0.432  0.5264  0.0726  0.7163
  814TP3     H2 2455   1.683   1.611   0.495 -0.6705  1.9762 -2.6104
  815TP3      O 2456   1.461   2.628   0.770 -0.1967 -0.6315 -0.0481
  815TP3     H1 2457   1.408   2.602   0.695  1.1389 -3.7137 -0.0814
  815TP3     H2 2458   1.474   2.547   0.819 -0.0679  1.0656  2.9515
  816TP3      O 2459   0.823   2.165   0.806 -0.3418  0.4524 -0.7078
  816TP3     H1 2460   0.837   2.251   0.846 -2.9057  1.5734 -1.9868
  816TP3     H2 2461   0.816   2.184   0.712  1.1997 -1.4903 -1.2797
  817TP3      O 2462   0.589   2.876   0.864 -0.1069  0.3401  0.2516
  817TP3     H1 2463   0.659   2.898   0.925  2.1790 -0.8738 -1.7423
  817TP3     H2 2464   0.581   2.781   0.871 -1.5913  0.4609  0.4346
  818TP3      O 2465   5.353   2.003   1.327 -0.1611  0.0994 -0.0405
  818TP3     H1 2466   5.322   1.999   1.236 -3.3091  2.7053  0.6965
  818TP3     H2 2467   5.321   1.922   1.367  1.9170 -1.4443 -1.3118
  819TP3      O 2468   0.116   2.881   1.473  0.4928  0.3548  0.6293
  819TP3     H1 2469   0.204   2.918   1.484 -0.1297  1.9093  0.6409
  819TP3     H2 2470   0.061   2.933   1.532 -0.5792 -0.0404  0.0073
  820TP3      O 2471   1.369   1.110   1.071 -0.1983 -0.5632 -0.2656
  820TP3     H1 2472   1.446   1.129   1.017  0.4549 -3.1831 -0.4156
  820TP3     H2 2473   1.405   1.071   1.151 -1.2136  2.1803  1.6926
  821TP3      O 2474   5.660   2.510   0.677  0.5135 -0.5525  0.0800
  821TP3     H1 2475   5.676   2.417   0.694  1.9238 -0.0255  1.9832
  821TP3     H2 2476   5.746   2.551   0.682 -0.3436  1.2418  2.2907
  822TP3      O 2477   0.202   2.562   1.135  0.3953 -0.2823 -0.2218
  822TP3     H1 2478   0.215   2.657   1.127  1.3468 -0.3710  0.2369
  822TP3     H2 2479   0.280   2.524   1.095  0.3121 -0.8637  0.1620
  823TP3      O 2480   1.415   3.403   1.488  0.2628 -0.2968  0.4547
  823TP3     H1 2481   1.426   3.329   1.428  0.4901 -0.5788  0.8364
  823TP3     H2 2482   1.499   3.448   1.487  0.9087 -1.3848  1.9681
  824TP3      O 2483   1.459   2.633   1.947 -0.0323 -0.1696  0.6231
  824TP3     H1 2484   1.460   2.548   1.903  0.7872 -0.6683  1.5736
  824TP3     H2 2485   1.525   2.626   2.015 -1.6485  0.3867  2.3291
  825TP3      O 2486   5.707   2.916   0.683 -0.0301 -0.0500 -0.1008
  825TP3     H1 2487   5.648   2.871   0.744 -0.4552  0.8619  0.1789
  825TP3     H2 2488   5.750   2.982   0.737  1.9773 -1.2904 -0.0708
  826TP3      O 2489   0.521   2.577   1.324 -0.2430 -0.3400  0.4973
  826TP3     H1 2490   0.462   2.650   1.342 -0.7962 -0.8877  0.9404
  826TP3     H2 2491   0.601   2.598   1.372 -0.4357 -0.0675  0.6977
  827TP3      O 2492   1.717   3.040   2.162 -0.0717 -0.3721 -0.5430
  827TP3     H1 2493   1.682   3.105   2.100 -1.6156 -1.1476 -0.5282
  827TP3     H2 2494   1.730   2.961   2.109  4.1989  0.5144 -1.1512
  828TP3      O 2495   0.456   2.407   0.923 -0.6670 -1.0659  0.3154
  828TP3     H1 2496   0.492   2.488   0.959 -3.2444 -1.0388  3.2624
  828TP3     H2 2497   0.463   2.418   0.828  1.8683  1.1901  0.6400
  829TP3      O 2498   1.786   2.707   0.998  0.4541 -0.1890 -0.5200
  829TP3     H1 2499   1.702   2.750   0.985  1.2013  1.5212  0.0076
  829TP3     H2 2500   1.827   2.708   0.911  1.1650  1.7880 -0.2084
  830TP3      O 2501   5.333   3.483   1.773  0.4558 -0.1089  0.3396
  830TP3     H1 2502   5.338   3.578   1.769  1.2648 -0.1749 -1.5465
  830TP3     H2 2503   5.376   3.454   1.692  2.2107 -2.1284  1.8810
  831TP3      O 2504   0.814   1.754   1.318  0.2766  0.2431  0.7619
  831TP3     H1 2505   0.897   1.800   1.329 -0.4659  1.2682  2.4706
  831TP3     H2 2506   0.752   1.802   1.374 -0.9796 -1.7340  1.1577
  832TP3      O 2507   1.420   3.921   1.873  0.7818 -0.0686 -0.0558
  832TP3     H1 2508   1.345   3.922   1.932  0.1354 -2.1154 -0.7408
  832TP3     H2 2509   1.404   3.845   1.816  2.7695  0.1693 -1.0053
  833TP3      O 2510   1.469   2.802   0.481  0.1566 -0.4429  0.3868
  833TP3     H1 2511   1.559   2.795   0.450 -0.1080 -2.7125 -0.0315
  833TP3     H2 2512   1.435   2.713   0.478 -2.1229  0.3446  0.5447
  834TP3      O 2513   0.313   1.904   1.268 -0.2625 -0.3021  0.3502
  834TP3     H1 2514   0.378   1.902   1.198  0.5357  0.7651  1.0342
  834TP3     H2 2515   0.254   1.975   1.243 -0.2425 -0.2219  0.5337
  835TP3      O 2516   1.981   2.746   1.187  0.0652 -0.3929 -0.0698
  835TP3     H1 2517   1.918   2.706   1.127  0.8154 -2.2926  0.3566
  835TP3     H2 2518   2.067   2.720   1.153  0.5179 -1.0322  1.4929
  836TP3      O 2519   1.282   1.661   0.053  0.2588 -0.0970 -0.6547
  836TP3     H1 2520   1.363   1.647   0.005 -0.4660  1.9050 -2.6413
  836TP3     H2 2521   1.256   1.750   0.031 -0.4078  0.8509  3.1918
  837TP3      O 2522   1.168   3.181   1.194 -0.0162 -0.2525  0.4743
  837TP3     H1 2523   1.170   3.258   1.137  2.6657  1.8498  3.1219
  837TP3     H2 2524   1.143   3.215   1.280 -1.4540 -2.8738  1.2159
  838TP3      O 2525   1.606   3.980   5.797  0.3074 -0.1068 -0.3027
  838TP3     H1 2526   1.651   4.057   5.832  0.6420 -0.3452 -0.2107
  838TP3     H2 2527   1.528   3.971   5.852 -0.1380  0.6166 -0.7930
  839TP3      O 2528   1.131   3.320   0.487 -0.7950 -0.2768  0.3896
  839TP3     H1 2529   1.098   3.263   0.417  1.5227 -1.3337  0.0601
  839TP3     H2 2530   1.135   3.264   0.564  0.0399 -0.1197  0.4624
  840TP3      O 2531   0.689   3.920   1.113 -0.5473  0.1011  0.0907
  840TP3     H1 2532   0.721   3.901   1.202 -0.8479 -0.7565  0.0232
  840TP3     H2 2533   0.668   3.835   1.076 -0.8596  0.4874 -0.6482
  841TP3      O 2534   0.694   1.628   5.822 -0.1971 -0.6148  0.0785
  841TP3     H1 2535   0.784   1.657   5.840 -0.0274 -0.0829 -1.4572
  841TP3     H2 2536   0.703   1.537   5.794 -0.0785 -0.4694 -0.3758
  842TP3      O 2537   1.769   1.775   0.635  0.4995 -0.2303  0.2334
  842TP3     H1 2538   1.843   1.776   0.575 -0.3321  0.0816 -0.8265
  842TP3     H2 2539   1.799   1.725   0.711  1.2955 -1.3579 -0.8002
  843TP3      O 2540   1.370   3.119   0.308 -0.7638  0.8612 -0.2752
  843TP3     H1 2541   1.456   3.137   0.270 -0.0706  1.1098  1.3270
  843TP3     H2 2542   1.311   3.180   0.265 -0.0328  1.1025 -0.9583
  844TP3      O 2543   5.490   3.483   2.029  0.9492 -0.6601  0.5812
  844TP3     H1 2544   5.423   3.451   1.969 -0.4328  2.6201  0.1361
  844TP3     H2 2545   5.573   3.455   1.990 -0.0351 -3.9546  0.6057
  845TP3      O 2546   0.880   2.397   0.464 -0.4048  0.3862 -0.1886
  845TP3     H1 2547   0.927   2.399   0.381  0.5645 -0.8812  0.3044
  845TP3     H2 2548   0.944   2.428   0.528 -1.0929  1.1975  0.1273
  846TP3      O 2549   1.041   2.573   0.942 -0.1432  0.2793  0.2950
  846TP3     H1 2550   0.993   2.508   0.993 -0.4161  0.0765 -0.2198
  846TP3     H2 2551   1.100   2.614   1.006  0.4835 -0.8948  0.5078
  847TP3      O 2552   0.670   3.412   5.438 -0.4020  0.1127 -0.0137
  847TP3     H1 2553   0.758   3.426   5.473  0.5641  1.2674 -2.6909
  847TP3     H2 2554   0.613   3.460   5.498  0.9384  0.4862  1.0024
  848TP3      O 2555   1.032   3.745   0.837  0.1916 -0.0510  0.6633
  848TP3     H1 2556   1.001   3.696   0.913  1.8952  1.6062  2.5570
  848TP3     H2 2557   0.975   3.822   0.833 -0.4482 -0.5575 -0.3159
  849TP3      O 2558   1.695   2.145   0.169 -0.2716 -0.3470 -0.6119
  849TP3     H1 2559   1.724   2.193   0.091  0.9124  0.2747  0.1868
  849TP3     H2 2560   1.711   2.204   0.242  0.5913 -1.6775  0.3302
  850TP3      O 2561   5.923   1.250   0.319  0.0896 -0.1495  0.6830
  850TP3     H1 2562   5.931   1.232   0.412  0.9569 -2.5654  0.2056
  850TP3     H2 2563   6.008   1.285   0.293 -0.5404  1.7326  0.9659
  851TP3      O 2564   2.098   3.983   0.273  0.2311  0.0831  0.2462
  851TP3     H1 2565   2.151   3.949   0.346  0.2779  2.0218  1.1839
  851TP3     H2 2566   2.162   4.006   0.206  0.4689  0.9687  0.7601
  852TP3      O 2567   0.877   2.252   1.637  0.2967  0.3994  0.8733
  852TP3     H1 2568   0.824   2.174   1.655  0.7464 -0.8921 -2.5264
  852TP3     H2 2569   0.954   2.219   1.590  2.4155  2.5861  2.5472
  853TP3      O 2570   0.907   2.605   5.967  0.1967  0.5805 -0.5204
  853TP3     H1 2571   0.915   2.531   5.907 -2.1702 -0.2496  0.0917
  853TP3     H2 2572   0.988   2.603   6.019  0.8322 -0.6353 -1.5170
  854TP3      O 2573   1.451   3.923   0.056 -0.3836 -0.7132  0.6268
  854TP3     H1 2574   1.528   3.938   0.111 -0.9507  0.3542  1.1640
  854TP3     H2 2575   1.470   3.841   0.011  1.5482  0.0613 -0.0830
  855TP3      O 2576   5.871   3.166   2.330  0.1683  0.3619 -0.0459
  855TP3     H1 2577   5.868   3.174   2.234  1.6542 -0.4499 -0.1933
  855TP3     H2 2578   5.912   3.247   2.360 -0.4038  0.6675 -0.0770
  856TP3      O 2579   1.824   3.024   0.963 -0.0751  0.3050 -0.6804
  856TP3     H1 2580   1.732   3.026   0.938 -0.7136  0.1649  1.5269
  856TP3     H2 2581   1.847   2.931   0.963  0.3914  0.3796 -2.1438
  857TP3      O 2582   1.304   2.100   1.005 -0.8403 -0.1711 -0.3611
  857TP3     H1 2583   1.234   2.151   0.964 -0.0462 -0.9975 -2.9031
  857TP3     H2 2584   1.364   2.166   1.040 -1.8701  0.5533  0.0963
  858TP3      O 2585   1.028   1.470   1.004 -0.4903  0.5249 -0.2671
  858TP3     H1 2586   1.057   1.460   1.095  0.5076  0.1452 -0.6100
  858TP3     H2 2587   0.974   1.549   1.004 -0.1044  0.7972  0.5720
  859TP3      O 2588   5.845   3.693   0.876 -0.2385 -0.4727 -0.1278
  859TP3     H1 2589   5.869   3.696   0.783 -1.3356  2.5138 -0.4256
  859TP3     H2 2590   5.928   3.702   0.922  0.0604  1.7087 -0.9661
  860TP3      O 2591   2.579   2.063   1.267  0.0561  0.1774  0.3458
  860TP3     H1 2592   2.554   2.121   1.339  2.6949  0.3514  1.2275
  860TP3     H2 2593   2.538   1.979   1.288 -1.4084  0.9166  0.5884
  861TP3      O 2594   5.542   3.455   0.667 -0.2697  0.4083 -0.5280
  861TP3     H1 2595   5.545   3.468   0.572  1.1085 -0.8126 -0.6857
  861TP3     H2 2596   5.495   3.372   0.677 -2.4135  1.5983  0.0370
  862TP3      O 2597   5.915   2.816   1.682 -0.2160 -0.5585 -0.1193
  862TP3     H1 2598   5.857   2.849   1.751 -0.7285  0.3703 -0.9651
  862TP3     H2 2599   5.860   2.815   1.603 -0.6697 -4.7256  0.0237
  863TP3      O 2600   1.249   1.979   1.760 -0.1582  0.0845  0.0252
  863TP3     H1 2601   1.188   2.039   1.804  0.3139  2.3541 -2.2186
  863TP3     H2 2602   1.335   2.002   1.796  0.0838  1.1634 -1.1713
  864TP3      O 2603   0.766   1.368   6.006  0.0929 -0.3480  0.6465
  864TP3     H1 2604   0.742   1.362   5.914 -2.0088 -3.4100  1.2549
  864TP3     H2 2605   0.856   1.403   6.005  0.2276 -0.5133 -2.5301
  865TP3      O 2606   1.214   3.084   1.577  0.6574  0.4145 -0.2859
  865TP3     H1 2607   1.171   3.151   1.524  0.9458  0.3415 -0.6221
  865TP3     H2 2608   1.152   3.063   1.646  0.6031  1.1022 -0.1206
  866TP3      O 2609   5.882   1.640   5.733 -0.1792  0.2928  0.1419
  866TP3     H1 2610   5.937   1.604   5.663 -0.7534  0.0555 -0.2004
  866TP3     H2 2611   5.915   1.728   5.747  0.2147  0.1925 -0.1406
  867TP3      O 2612   1.518   3.667   0.272 -0.7915 -0.4345 -0.4528
  867TP3     H1 2613   1.473   3.588   0.302  0.1424 -0.7026  0.2873
  867TP3     H2 2614   1.454   3.710   0.214 -1.2802 -1.7722 -0.9576
  868TP3      O 2615   1.537   2.819   1.139 -0.0024 -0.4666  0.0364
  868TP3     H1 2616   1.617   2.866   1.161 -1.1876  2.0205 -0.5520
  868TP3     H2 2617   1.471   2.856   1.197 -1.4199  0.1580 -1.8634
  869TP3      O 2618   1.590   3.546   0.906  1.1527  0.7973  0.3232
  869TP3     H1 2619   1.616   3.545   0.998  3.5039 -0.6194 -0.2678
  869TP3     H2 2620   1.660   3.593   0.861  0.7498  0.2793 -0.9076
  870TP3      O 2621   1.093   2.488   0.643 -0.0596 -0.0730  0.2289
  870TP3     H1 2622   1.063   2.525   0.726 -0.5333 -0.0460  0.0473
  870TP3     H2 2623   1.160   2.425   0.668 -0.9193 -0.8178  0.7159
  871TP3      O 2624   1.011   3.049   1.912  0.6067 -0.0047 -0.2187
  871TP3     H1 2625   1.034   3.114   1.979  2.5869 -1.7160  0.8779
  871TP3     H2 2626   1.041   3.088   1.830 -1.4062  1.9170 -0.1385
  872TP3      O 2627   1.206   4.714   1.312  0.2689 -0.1068  0.1840
  872TP3     H1 2628   1.218   4.674   1.398  1.1205 -1.4705 -0.5296
  872TP3     H2 2629   1.256   4.795   1.315 -0.6598  0.4503  1.3374
  873TP3      O 2630   0.687   2.966   1.117  0.1589 -0.5140 -0.6139
  873TP3     H1 2631   0.642   2.926   1.192  0.1999  2.2800  1.0377
  873TP3     H2 2632   0.780   2.950   1.133  0.2107  0.6214  0.3285
  874TP3      O 2633   1.624   2.038   1.203 -0.4550 -0.0582  0.7228
  874TP3     H1 2634   1.712   2.007   1.224 -0.6057 -1.3686 -0.4660
  874TP3     H2 2635   1.635   2.091   1.124 -0.8639 -1.1718 -0.1016
  875TP3      O 2636   0.011   2.232   0.753  0.3442  0.5688 -0.3853
  875TP3     H1 2637   0.046   2.299   0.695  1.6107  0.7341  0.5163
  875TP3     H2 2638   0.089   2.189   0.789 -0.4176 -2.3452 -1.9720
  876TP3      O 2639   1.269   2.893   2.198 -0.5943  0.3120  0.0937
  876TP3     H1 2640   1.308   2.973   2.162 -0.3402 -1.0681 -3.0509
  876TP3     H2 2641   1.343   2.847   2.238 -0.3880  0.8254  0.3091
  877TP3      O 2642   1.793   3.240   0.654  0.0411  0.5828  0.1610
  877TP3     H1 2643   1.796   3.312   0.592  0.5632  1.2750  0.9654
  877TP3     H2 2644   1.724   3.183   0.621 -0.4491  1.4965 -0.4454
  878TP3      O 2645   1.089   3.045   5.569  0.3026  0.3064  0.7398
  878TP3     H1 2646   1.135   3.128   5.560  1.3704 -0.4646 -2.2152
  878TP3     H2 2647   1.121   2.992   5.496 -0.7058 -2.5469  2.2005
  879TP3      O 2648   0.883   3.319   2.241  0.0796 -0.6614  0.4179
  879TP3     H1 2649   0.928   3.239   2.267  0.5712 -0.5508 -0.0547
  879TP3     H2 2650   0.922   3.341   2.156 -2.0288 -1.4733 -0.8500
  880TP3      O 2651   0.378   2.942   0.714  0.0742 -0.3071  0.1286
  880TP3     H1 2652   0.342   2.941   0.803  0.7473 -1.2278  0.3988
  880TP3     H2 2653   0.472   2.951   0.726  0.0460  1.2507 -0.5606
  881TP3      O 2654   0.320   1.856   5.788  0.5494  0.1735  0.1256
  881TP3     H1 2655   0.367   1.786   5.832 -0.0138 -0.9301 -0.9726
  881TP3     H2 2656   0.363   1.863   5.702 -1.3359 -0.9961 -0.9785
  882TP3      O 2657   1.501   4.198   1.502  0.2877  0.6783  0.2891
  882TP3     H1 2658   1.452   4.120   1.479  0.3361  1.0614 -1.2939
  882TP3     H2 2659   1.449   4.241   1.569 -0.0662 -0.3697  0.6986
  883TP3      O 2660   0.160   2.733   1.809 -0.2164 -0.4114  0.2380
  883TP3     H1 2661   0.125   2.687   1.885 -1.0784  1.2811  0.9064
  883TP3     H2 2662   0.083   2.769   1.765  0.4635  1.2427  0.3291
  884TP3      O 2663   5.819   3.092   0.881  0.7047 -0.3197  0.0912
  884TP3     H1 2664   5.814   3.183   0.910 -1.0367  0.0355 -1.1712
  884TP3     H2 2665   5.791   3.041   0.957  0.1102  0.3074  0.3036
  885TP3      O 2666   0.716   3.658   0.635  0.1239 -0.5472  0.5529
  885TP3     H1 2667   0.656   3.620   0.571  2.0346 -0.0405 -1.6813
  885TP3     H2 2668   0.752   3.583   0.683 -1.4991 -0.9126  1.2734
  886TP3      O 2669   2.343   2.498   2.275  0.3475 -0.4586 -0.0396
  886TP3     H1 2670   2.381   2.412   2.258  0.1848 -0.8100  1.2200
  886TP3     H2 2671   2.409   2.560   2.244  0.4648 -1.0336 -0.9632
  887TP3      O 2672   5.125   2.279   0.674  0.1239 -0.3235  0.1132
  887TP3     H1 2673   5.188   2.300   0.605  0.2846  1.7256  0.8020
  887TP3     H2 2674   5.054   2.341   0.660 -0.4278 -0.7345  1.0481
  888TP3      O 2675   0.829   3.540   1.901  0.3666  0.1499  0.2234
  888TP3     H1 2676   0.795   3.582   1.980 -1.4413 -0.3442 -0.2335
  888TP3     H2 2677   0.773   3.463   1.889  0.9507 -0.0784 -1.2348
  889TP3      O 2678   0.546   2.073   0.873 -0.4763 -0.3518 -0.6895
  889TP3     H1 2679   0.638   2.092   0.892 -0.7441  2.9465 -2.0261
  889TP3     H2 2680   0.502   2.079   0.958  0.4592 -1.8576 -0.0578
  890TP3      O 2681   0.480   3.548   0.850  0.2530 -0.6006  0.3065
  890TP3     H1 2682   0.450   3.533   0.761 -0.9734 -1.1771  0.8011
  890TP3     H2 2683   0.484   3.643   0.859 -1.8221 -0.4782  0.3254
  891TP3      O 2684   1.843   2.262   1.471  0.2242  0.0697  0.3699
  891TP3     H1 2685   1.863   2.342   1.422  0.2823  0.6849  1.3748
  891TP3     H2 2686   1.908   2.260   1.541  2.9438 -3.0067 -1.9312
  892TP3      O 2687   1.320   0.657   1.376 -0.1947  0.3835 -0.1426
  892TP3     H1 2688   1.260   0.646   1.450  1.1451  0.2345  0.9488
  892TP3     H2 2689   1.377   0.581   1.380  0.2097  0.6251 -1.0492
  893TP3      O 2690   5.937   3.213   5.850  0.0167 -0.1572 -0.0570
  893TP3     H1 2691   5.894   3.182   5.770  1.2042  0.8731 -1.1367
  893TP3     H2 2692   5.937   3.308   5.841  1.0133 -0.0713  0.7353
  894TP3      O 2693   0.317   3.656   2.406  0.5681 -0.0222  0.0579
  894TP3     H1 2694   0.340   3.617   2.322 -2.8962 -1.9362 -0.2278
  894TP3     H2 2695   0.227   3.686   2.394  1.5225  4.2114  1.7331
  895TP3      O 2696   1.158   2.023   5.715  0.2515  0.3568 -0.0641
  895TP3     H1 2697   1.068   2.057   5.716  0.1706  0.1621  1.6587
  895TP3     H2 2698   1.158   1.960   5.643 -1.4613 -0.8162  0.8855
  896TP3      O 2699   1.332   3.698   1.310 -0.1549 -0.4042 -0.0004
  896TP3     H1 2700   1.410   3.666   1.266  1.4446 -0.0915  2.4106
  896TP3     H2 2701   1.292   3.758   1.247  1.9640  0.0058 -1.0393
  897TP3      O 2702   2.052   1.687   0.640 -0.2394 -0.5090 -0.5999
  897TP3     H1 2703   2.124   1.751   0.639  0.9655 -1.8189 -1.8157
  897TP3     H2 2704   2.069   1.635   0.719 -0.5373 -0.1069 -0.2621
  898TP3      O 2705   0.234   3.448   0.521 -0.1107  0.1035 -0.2262
  898TP3     H1 2706   0.203   3.401   0.599  1.8615  0.1929  0.6516
  898TP3     H2 2707   0.187   3.406   0.448 -1.1857 -0.7011  0.8799
  899TP3      O 2708   0.309   3.697   0.472 -0.0759  0.1250  0.1138
  899TP3     H1 2709   0.278   3.616   0.512 -0.8854  1.2001  1.7782
  899TP3     H2 2710   0.288   3.687   0.379 -0.3855 -1.4519  0.3242
  900TP3      O 2711   0.806   2.892   2.008 -0.4458  0.0773  0.0536
  900TP3     H1 2712   0.764   2.910   2.093 -0.6060 -0.0891  0.0105
  900TP3     H2 2713   0.856   2.972   1.989 -0.4252  0.1243  0.2946
  901TP3      O 2714   5.778   1.149   3.565 -0.7507 -0.3155  0.8748
  901TP3     H1 2715   5.836   1.157   3.641  2.0342 -0.9361 -0.9828
  901TP3     H2 2716   5.790   1.231   3.517 -1.5179 -0.4177  0.4952
  902TP3      O 2717   5.796   2.591   2.476  0.4779  0.2987 -0.0321
  902TP3     H1 2718   5.753   2.587   2.562 -0.4777  2.1815 -0.3838
  902TP3     H2 2719   5.867   2.527   2.483 -0.4956 -0.6970  1.6231
  903TP3      O 2720   0.321   2.992   3.279  0.2363 -0.6666  0.5172
  903TP3     H1 2721   0.338   3.085   3.266  1.1669 -0.2526  3.8012
  903TP3     H2 2722   0.405   2.956   3.310  0.1093 -2.8023 -1.3787
  904TP3      O 2723   1.655   3.523   2.766 -0.1395 -0.1164 -0.3342
  904TP3     H1 2724   1.748   3.515   2.786 -0.1685 -1.5747 -0.6947
  904TP3     H2 2725   1.631   3.610   2.798  0.7395 -0.7340  2.1828
  905TP3      O 2726   0.968   2.640   2.110  0.3136 -0.2974 -0.3558
  905TP3     H1 2727   1.059   2.648   2.082  0.1428 -1.1063 -1.2026
  905TP3     H2 2728   0.933   2.729   2.108  1.3829  0.1929  1.1066
  906TP3      O 2729   1.751   2.428   3.117  0.7895 -0.5030 -0.8852
  906TP3     H1 2730   1.761   2.520   3.141  1.1711 -0.6458 -0.4745
  906TP3     H2 2731   1.686   2.428   3.047  0.6028  0.0525 -0.7150
  907TP3      O 2732   0.736   2.395   2.776  0.3703 -0.7916 -0.3203
  907TP3     H1 2733   0.716   2.301   2.770 -0.1660 -0.7368  0.4704
  907TP3     H2 2734   0.709   2.419   2.865  0.3070  0.1634 -0.5962
  908TP3      O 2735   1.453   2.724   3.661 -0.3662  0.3305  0.7091
  908TP3     H1 2736   1.445   2.794   3.596 -0.4688  0.7634  1.1773
  908TP3     H2 2737   1.541   2.690   3.649 -1.0841 -1.0763 -1.1228
  909TP3      O 2738   1.170   2.114   2.298  0.6525  0.1841 -0.2351
  909TP3     H1 2739   1.155   2.034   2.247 -0.0898 -1.5188  2.4552
  909TP3     H2 2740   1.131   2.096   2.384  1.3482  3.0856  0.8186
  910TP3      O 2741   0.333   2.640   4.007 -0.0030 -0.2465  0.4004
  910TP3     H1 2742   0.413   2.686   3.981 -0.0277 -0.8472 -0.8416
  910TP3     H2 2743   0.322   2.572   3.940 -2.2344  0.6092 -0.1962
  911TP3      O 2744   0.169   2.826   2.564 -0.3648  0.5079  0.0118
  911TP3     H1 2745   0.165   2.748   2.619  2.1634  0.0839 -0.2642
  911TP3     H2 2746   0.109   2.807   2.491  0.6369 -1.4940 -0.3666
  912TP3      O 2747   1.637   2.828   3.264  0.5564 -0.0508 -0.0200
  912TP3     H1 2748   1.635   2.801   3.172  0.4657  0.6647 -0.2294
  912TP3     H2 2749   1.687   2.759   3.308  1.3427  0.0438 -0.7450
  913TP3      O 2750   0.708   2.604   2.973  0.1223  0.2579 -0.1554
  913TP3     H1 2751   0.677   2.679   2.923 -1.7744 -1.3614 -1.6139
  913TP3     H2 2752   0.797   2.626   2.999 -0.3465  2.9294 -0.5816
  914TP3      O 2753   1.496   2.501   2.296  0.1979 -0.0420  0.2903
  914TP3     H1 2754   1.544   2.512   2.214 -0.5176  0.5237 -0.0704
  914TP3     H2 2755   1.549   2.441   2.348  0.3179 -0.9626 -0.8650
  915TP3      O 2756   5.722   3.502   2.549 -0.4658 -0.4849 -0.0706
  915TP3     H1 2757   5.775   3.428   2.579 -0.5030  0.5804  2.8891
  915TP3     H2 2758   5.632   3.477   2.570 -0.5203  0.1907  0.5304
  916TP3      O 2759   0.606   2.598   3.455  0.4833 -0.3132 -0.4163
  916TP3     H1 2760   0.633   2.541   3.383 -3.3702  0.7387 -3.0241
  916TP3     H2 2761   0.545   2.544   3.506 -0.5623  0.3677 -0.9053
  917TP3      O 2762   5.945   3.406   2.986 -0.5428  0.4146  0.7462
  917TP3     H1 2763   5.874   3.442   3.039  0.3058 -0.1463  2.3293
  917TP3     H2 2764   6.020   3.401   3.046  0.0798 -1.5491 -0.1181
  918TP3      O 2765   0.420   2.803   3.484 -0.3603 -0.3563 -0.4667
  918TP3     H1 2766   0.332   2.767   3.485 -0.5084 -0.0235  1.6030
  918TP3     H2 2767   0.477   2.727   3.467 -0.8075 -1.3029  1.9052
  919TP3      O 2768   5.439   4.327   3.272  0.6234 -0.9743 -0.1346
  919TP3     H1 2769   5.374   4.321   3.341  0.9149 -0.2477  0.2137
  919TP3     H2 2770   5.505   4.262   3.296  1.1199 -0.1776  0.7116
  920TP3      O 2771   0.373   3.216   1.937  0.1150 -0.6482  0.4575
  920TP3     H1 2772   0.340   3.127   1.923 -2.7907  0.3951 -0.1074
  920TP3     H2 2773   0.308   3.256   1.994 -0.2978  1.9497 -1.6501
  921TP3      O 2774   1.217   2.459   3.424 -0.7266  0.1005 -0.8260
  921TP3     H1 2775   1.214   2.516   3.501 -0.1142 -0.2986 -0.4954
  921TP3     H2 2776   1.309   2.461   3.396 -0.6732 -0.7902 -0.7525
  922TP3      O 2777   5.286   2.208   2.730  0.2603 -0.4033  0.4251
  922TP3     H1 2778   5.219   2.237   2.792  0.7186 -0.6246  1.0406
  922TP3     H2 2779   5.360   2.267   2.746 -0.4915  1.2710 -1.7486
  923TP3      O 2780   1.977   3.477   2.022  0.0022 -0.1038  0.6360
  923TP3     H1 2781   2.036   3.535   2.070  1.2450  0.2337 -1.1759
  923TP3     H2 2782   2.028   3.397   2.009  0.4777  0.4898 -1.6711
  924TP3      O 2783   0.510   3.236   2.196 -0.0883 -0.5059  0.4913
  924TP3     H1 2784   0.521   3.156   2.145  0.1788  0.4002 -0.9117
  924TP3     H2 2785   0.488   3.205   2.284  0.5985 -2.1231  0.1250
  925TP3      O 2786   1.390   2.745   2.590 -0.3183  0.4456  0.3736
  925TP3     H1 2787   1.429   2.823   2.630  0.3233  1.0663 -1.3776
  925TP3     H2 2788   1.296   2.760   2.596 -0.2059  1.3575  0.0883
  926TP3      O 2789   0.375   2.607   2.399  0.7119  0.0264 -0.6985
  926TP3     H1 2790   0.427   2.554   2.459 -0.7986 -0.6012  0.1200
  926TP3     H2 2791   0.338   2.676   2.455 -1.4107 -1.0645 -0.6589
  927TP3      O 2792   0.173   2.226   2.862 -0.4655  0.6356 -0.0019
  927TP3     H1 2793   0.105   2.159   2.865 -0.3080  0.4396 -0.6989
  927TP3     H2 2794   0.146   2.290   2.928 -0.5708 -0.1537  0.7448
  928TP3      O 2795   0.244   2.595   2.180 -0.0955 -0.4671 -0.2737
  928TP3     H1 2796   0.285   2.610   2.266 -1.4331  0.4578  0.2352
  928TP3     H2 2797   0.233   2.683   2.143 -1.3007 -0.7066 -0.5277
  929TP3      O 2798   1.468   2.997   2.737 -0.2180  0.4719 -0.1891
  929TP3     H1 2799   1.484   3.082   2.779 -0.3933  0.2606  0.3248
  929TP3     H2 2800   1.548   2.977   2.690 -0.3668  1.1692 -0.7500
  930TP3      O 2801   0.511   1.525   1.744  0.1707 -0.1483 -0.3070
  930TP3     H1 2802   0.589   1.498   1.793 -0.6017  0.6146  1.4067
  930TP3     H2 2803   0.444   1.537   1.811 -0.3180  3.1990 -1.2239
  931TP3      O 2804   5.302   3.312   2.217 -0.7095  0.3017  0.5056
  931TP3     H1 2805   5.245   3.355   2.153 -0.4720  1.2818  0.9381
  931TP3     H2 2806   5.370   3.270   2.163 -0.5337  1.0786  0.0967
  932TP3      O 2807   1.465   2.769   2.332 -0.0941  0.3034  0.5293
  932TP3     H1 2808   1.441   2.678   2.319  0.7600 -0.0533  1.3469
  932TP3     H2 2809   1.443   2.787   2.424  0.5762  0.6495  0.6268
  933TP3      O 2810   1.671   4.840   4.200  0.1111 -0.6535  0.0374
  933TP3     H1 2811   1.677   4.935   4.197 -0.2803 -0.5467  1.7067
  933TP3     H2 2812   1.754   4.809   4.163 -0.7826  0.2320 -3.0001
  934TP3      O 2813   0.909   1.836   3.814  0.3790  0.4033 -0.1665
  934TP3     H1 2814   0.920   1.743   3.797 -1.3078 -0.0744  1.0637
  934TP3     H2 2815   0.868   1.870   3.734 -1.3003 -0.4590  0.2680
  935TP3      O 2816   1.500   4.115   2.840  0.1415 -0.7353 -1.0469
  935TP3     H1 2817   1.584   4.088   2.878 -0.3540  0.6710  1.2490
  935TP3     H2 2818   1.451   4.034   2.829  0.4245 -1.2939  1.2260
  936TP3      O 2819   2.463   3.263   3.489  0.0603  0.1125 -0.0812
  936TP3     H1 2820   2.523   3.221   3.428  1.0023  0.0229  0.8766
  936TP3     H2 2821   2.492   3.234   3.575 -0.7349  0.8697  0.4648
  937TP3      O 2822   0.545   2.473   2.567 -0.0827 -0.2579 -0.3184
  937TP3     H1 2823   0.506   2.390   2.540  1.6535 -1.4499  0.5888
  937TP3     H2 2824   0.635   2.450   2.590  0.2564  1.7741  0.5883
  938TP3      O 2825   1.698   3.164   2.583  0.0630  0.0264 -0.3773
  938TP3     H1 2826   1.720   3.245   2.536 -2.2368  1.3170  0.6052
  938TP3     H2 2827   1.677   3.193   2.672  2.0870 -2.0788  0.8585
  939TP3      O 2828   0.950   3.159   1.629 -0.2574  0.0310 -0.2568
  939TP3     H1 2829   0.926   3.128   1.542 -1.0775 -0.2100  0.0508
  939TP3     H2 2830   0.877   3.133   1.685  1.6654 -2.7919  1.1619
  940TP3      O 2831   1.170   1.993   3.036  0.1149 -0.7603  0.1147
  940TP3     H1 2832   1.173   1.927   3.105 -1.0539 -0.8748  0.0716
  940TP3     H2 2833   1.151   2.075   3.082  0.6998 -0.5954  0.0716
  941TP3      O 2834   1.301   2.040   3.581 -0.2339  0.0442  0.2927
  941TP3     H1 2835   1.228   2.084   3.537  0.1906 -0.4126 -0.9139
  941TP3     H2 2836   1.298   1.950   3.548  0.3698 -0.2058  0.8836
  942TP3      O 2837   0.752   3.520   3.459  0.0659 -0.2932  0.2790
  942TP3     H1 2838   0.766   3.426   3.471 -0.2916 -0.3217  0.4675
  942TP3     H2 2839   0.779   3.559   3.542  0.5617 -0.1903  0.0750
  943TP3      O 2840   0.721   1.993   2.415 -0.2422 -0.8510  0.5299
  943TP3     H1 2841   0.761   1.917   2.457  1.4247  1.1440  2.8071
  943TP3     H2 2842   0.695   2.051   2.487 -3.3752 -0.0717 -1.0246
  944TP3      O 2843   1.405   3.083   1.862 -0.5641  0.1553 -0.4367
  944TP3     H1 2844   1.349   3.150   1.901 -0.6403 -0.9303  1.4402
  944TP3     H2 2845   1.493   3.123   1.862 -0.6779  0.4113  0.2412
  945TP3      O 2846   0.521   2.757   2.850  0.0007 -0.3069  0.0902
  945TP3     H1 2847   0.472   2.685   2.810  1.5725 -1.2674 -0.1998
  945TP3     H2 2848   0.482   2.766   2.937 -0.9605 -0.7621 -0.2785
  946TP3      O 2849   0.663   2.932   3.113 -0.1483 -0.0604 -0.0487
  946TP3     H1 2850   0.735   2.885   3.154  0.2053 -1.4831 -2.1442
  946TP3     H2 2851   0.590   2.869   3.113 -1.4762  1.3441  2.0309
  947TP3      O 2852   0.469   2.835   1.366 -0.2737  0.1469 -0.1842
  947TP3     H1 2853   0.385   2.876   1.386 -0.6021 -0.6845  0.1801
  947TP3     H2 2854   0.533   2.890   1.411 -0.6614  0.5064 -0.0582
  948TP3      O 2855   1.878   3.769   4.641 -0.2396 -0.0889 -0.1454
  948TP3     H1 2856   1.908   3.795   4.554 -4.0953  1.7423 -1.1725
  948TP3     H2 2857   1.915   3.835   4.700  1.2083 -0.4817 -0.5829
  949TP3      O 2858   0.599   2.801   1.735 -0.3903 -0.7030 -0.3772
  949TP3     H1 2859   0.615   2.713   1.701 -3.1000 -0.6761 -1.9638
  949TP3     H2 2860   0.574   2.787   1.826  1.9761 -1.2271  0.2848
  950TP3      O 2861   0.639   1.123   2.298 -0.3522 -0.3760  0.3782
  950TP3     H1 2862   0.692   1.052   2.334 -1.7397 -0.9701  1.3458
  950TP3     H2 2863   0.699   1.173   2.244  1.3857 -0.5494  2.0659
  951TP3      O 2864   0.724   2.935   2.797 -0.4106  0.2961  0.3035
  951TP3     H1 2865   0.640   2.898   2.825  0.5666 -2.7740 -0.4523
  951TP3     H2 2866   0.768   2.959   2.879 -0.9649 -0.6075  0.8871
  952TP3      O 2867   0.418   3.184   3.066  0.9155 -0.0051 -0.4182
  952TP3     H1 2868   0.494   3.127   3.059  1.3043  0.3454  0.6439
  952TP3     H2 2869   0.454   3.273   3.058  0.4018  0.1232 -1.4627
  953TP3      O 2870   2.785   2.997   3.629  0.4133 -0.1859 -0.4407
  953TP3     H1 2871   2.836   2.938   3.684  0.6220  0.3647 -0.0369
  953TP3     H2 2872   2.836   3.078   3.626  0.3336 -0.1599 -1.3333
  954TP3      O 2873   1.329   3.624   3.700  0.0385 -0.0253 -0.2752
  954TP3     H1 2874   1.259   3.643   3.638 -0.2134  1.0829  0.3220
  954TP3     H2 2875   1.286   3.572   3.769  0.3322 -1.3070 -1.0305
  955TP3      O 2876   5.695   3.216   1.759  0.2921 -0.0989 -0.4414
  955TP3     H1 2877   5.693   3.305   1.794 -0.8179 -0.3824  0.2646
  955TP3     H2 2878   5.758   3.220   1.686 -0.2766  1.4227 -0.8870
  956TP3      O 2879   1.758   2.886   2.831 -0.2728 -0.1944 -0.2666
  956TP3     H1 2880   1.734   2.870   2.740  0.8645  2.9669 -1.2666
  956TP3     H2 2881   1.798   2.973   2.830  2.6906 -1.2924  2.7307
  957TP3      O 2882   0.768   2.702   3.678 -0.3630 -0.3619  0.0200
  957TP3     H1 2883   0.790   2.609   3.667  0.7163 -0.2849  1.2666
  957TP3     H2 2884   0.721   2.725   3.598 -3.6427 -2.8152  1.0057
  958TP3      O 2885   1.375   3.630   2.182 -0.1063 -0.2331  0.3200
  958TP3     H1 2886   1.349   3.538   2.179  0.7570 -0.6514  2.8636
  958TP3     H2 2887   1.318   3.668   2.249 -1.0985  1.3776 -1.3394
  959TP3      O 2888   0.480   2.199   3.910  0.5233  0.0008  0.6812
  959TP3     H1 2889   0.452   2.112   3.882  0.3113  0.9114 -2.2703
  959TP3     H2 2890   0.411   2.227   3.971 -0.6949 -0.9738 -0.1913
  960TP3      O 2891   1.843   2.806   1.954 -0.0957 -0.1001  0.6859
  960TP3     H1 2892   1.800   2.823   1.870  1.1699  0.0782  0.0358
  960TP3     H2 2893   1.772   2.787   2.014 -1.0851  0.4292 -0.2729
  961TP3      O 2894   0.603   3.368   1.984  0.3513 -0.3661 -0.6577
  961TP3     H1 2895   0.518   3.330   1.962 -0.1626  0.8936 -0.9523
  961TP3     H2 2896   0.614   3.351   2.077 -0.6577  0.2343 -0.4104
  962TP3      O 2897   5.611   1.999   1.881 -0.1839  0.2684 -0.1145
  962TP3     H1 2898   5.569   1.953   1.808  0.1220  1.9330 -1.4208
  962TP3     H2 2899   5.541   2.010   1.945 -0.2895 -1.8260  0.1985
  963TP3      O 2900   0.257   3.389   2.475 -0.1520 -0.2729 -0.5999
  963TP3     H1 2901   0.287   3.479   2.467 -1.6519  0.6398  2.3144
  963TP3     H2 2902   0.334   3.336   2.459  0.3635  1.3300 -4.4072
  964TP3      O 2903   1.066   3.537   2.523 -0.2484  1.1081 -0.3448
  964TP3     H1 2904   1.052   3.561   2.431  0.5318  1.2171 -0.4438
  964TP3     H2 2905   1.150   3.579   2.546 -0.3437  0.9218  0.3578
  965TP3      O 2906   0.412   2.349   1.790  0.3846  0.1448  0.0126
  965TP3     H1 2907   0.387   2.411   1.722  0.8099 -1.0963 -1.3381
  965TP3     H2 2908   0.378   2.386   1.870 -0.4517  1.4912 -0.9263
  966TP3      O 2909   1.353   2.380   3.995 -0.2633  0.2567  0.1947
  966TP3     H1 2910   1.446   2.356   3.997 -0.2568  0.3011  0.4342
  966TP3     H2 2911   1.318   2.332   3.920 -0.2721 -0.6026  0.7415
  967TP3      O 2912   0.363   1.202   1.852  0.7696  0.4270  0.3881
  967TP3     H1 2913   0.445   1.198   1.900  0.9812 -1.3390 -0.0331
  967TP3     H2 2914   0.312   1.128   1.885 -0.3104  0.9875  0.0367
  968TP3      O 2915   0.897   3.051   2.999  0.5288 -0.1323  0.1099
  968TP3     H1 2916   0.945   3.000   3.063  0.1600  1.6622  1.9207
  968TP3     H2 2917   0.932   3.140   3.008 -0.7229  0.5067 -0.9685
  969TP3      O 2918   0.803   4.331   2.686 -0.3411  0.4015 -0.1648
  969TP3     H1 2919   0.734   4.397   2.681  0.5223  1.7689  3.2911
  969TP3     H2 2920   0.773   4.271   2.754  0.2584 -1.1584 -1.2146
  970TP3      O 2921   0.647   2.164   3.033 -0.5793  0.0683 -0.1996
  970TP3     H1 2922   0.698   2.110   2.973 -1.4747 -0.4673 -0.5039
  970TP3     H2 2923   0.711   2.222   3.075  0.2880 -0.7142 -0.4237
  971TP3      O 2924   0.649   2.891   2.247 -0.0139  0.0563 -0.6271
  971TP3     H1 2925   0.722   2.859   2.299  1.6603  2.0411 -1.6028
  971TP3     H2 2926   0.576   2.898   2.309  0.8537 -1.1521  0.5787
  972TP3      O 2927   1.102   1.685   2.329 -0.0138 -0.0079  0.7549
  972TP3     H1 2928   1.137   1.747   2.393 -0.0127 -0.0091  0.7555
  972TP3     H2 2929   1.131   1.600   2.361 -0.8247 -0.0941  1.2761
  973TP3      O 2930   5.558   2.170   2.564  0.2382 -0.9746 -0.2192
  973TP3     H1 2931   5.644   2.188   2.601  0.3573 -0.6297 -0.6467
  973TP3     H2 2932   5.533   2.252   2.521  0.8240 -1.8100 -2.2823
  974TP3      O 2933   1.715   2.553   2.590  0.2792 -0.0466 -0.4122
  974TP3     H1 2934   1.803   2.518   2.576 -0.5755 -1.4988 -2.7796
  974TP3     H2 2935   1.720   2.644   2.561  1.2242  0.2098  0.5061
  975TP3      O 2936   5.978   1.528   1.380  0.0975  0.2916  0.0242
  975TP3     H1 2937   5.894   1.575   1.381 -0.7031 -0.8119 -3.1775
  975TP3     H2 2938   6.035   1.582   1.326  0.0311 -1.0270 -1.4211
  976TP3      O 2939   0.496   1.837   1.073 -0.1431  0.2057 -0.5333
  976TP3     H1 2940   0.524   1.749   1.096 -2.3621 -0.9059 -1.6996
  976TP3     H2 2941   0.574   1.880   1.038  1.3392 -0.7380  1.4374
  977TP3      O 2942   1.284   1.518   2.983  0.4889 -0.6354 -0.3261
  977TP3     H1 2943   1.240   1.456   3.041  2.1962 -1.3797  0.2333
  977TP3     H2 2944   1.377   1.495   2.989  1.1639  1.8704 -0.2481
  978TP3      O 2945   1.552   3.249   2.831  0.1176  0.1676  0.5308
  978TP3     H1 2946   1.517   3.274   2.917  1.2503  0.9214  0.7937
  978TP3     H2 2947   1.572   3.332   2.788 -0.3726 -0.2082 -0.4549
  979TP3      O 2948   0.155   3.062   2.475 -0.5857 -0.3379  0.0447
  979TP3     H1 2949   0.138   3.130   2.539 -1.1634  0.1171 -0.5756
  979TP3     H2 2950   0.162   2.981   2.527  2.9054  0.4824  1.1180
  980TP3      O 2951   0.608   3.654   2.440 -0.0681  0.3376  0.5668
  980TP3     H1 2952   0.638   3.706   2.514  0.3803 -3.1123  3.0888
  980TP3     H2 2953   0.517   3.679   2.428  0.4726  2.5633  0.7073
  981TP3      O 2954   1.022   2.159   1.950  0.0302  0.3056  0.1233
  981TP3     H1 2955   1.029   2.171   2.045 -1.4449  1.5620  0.1189
  981TP3     H2 2956   0.989   2.243   1.918  1.8783  0.4203 -1.7113
  982TP3      O 2957   5.941   1.789   2.917  0.5683 -0.8053  0.1734
  982TP3     H1 2958   6.025   1.765   2.956 -0.1507 -2.7257  0.6469
  982TP3     H2 2959   5.894   1.706   2.907 -1.3639  0.2263  0.1335
  983TP3      O 2960   0.465   2.265   2.875 -0.5284 -0.0684 -0.3235
  983TP3     H1 2961   0.380   2.222   2.874 -0.5619 -0.1938  2.0614
  983TP3     H2 2962   0.516   2.218   2.941  1.5717 -0.2531 -1.9705
  984TP3      O 2963   0.767   2.401   1.413 -0.5255  0.3306 -0.7610
  984TP3     H1 2964   0.771   2.376   1.506 -2.4469  2.5387  0.0260
  984TP3     H2 2965   0.727   2.326   1.370  0.4798 -0.7755  0.1519
  985TP3      O 2966   0.651   2.016   2.119  0.0421  0.0077 -0.1113
  985TP3     H1 2967   0.683   2.024   2.210 -0.2457 -0.4335  0.0294
  985TP3     H2 2968   0.665   2.103   2.082  0.0763  0.2190  0.3844
  986TP3      O 2969   1.500   3.820   3.322 -0.2575  0.4748  0.0205
  986TP3     H1 2970   1.445   3.772   3.384 -0.5841  2.1991  1.1441
  986TP3     H2 2971   1.439   3.861   3.262 -0.0843  0.8222  0.0798
  987TP3      O 2972   2.336   2.531   2.985  0.1914 -0.1862 -0.3084
  987TP3     H1 2973   2.294   2.500   2.905  0.1547 -0.1252 -0.3125
  987TP3     H2 2974   2.365   2.619   2.964  3.1602 -1.2861 -1.4043
  988TP3      O 2975   0.442   2.931   2.451 -0.0860  0.2111  0.5289
  988TP3     H1 2976   0.459   2.889   2.536  0.9270 -0.2529  0.1170
  988TP3     H2 2977   0.347   2.941   2.448 -0.2171 -0.6335  1.3198
  989TP3      O 2978   1.661   2.716   2.159 -0.2539  0.7706  0.0177
  989TP3     H1 2979   1.590   2.741   2.218  0.3343  2.2618  0.1274
  989TP3     H2 2980   1.728   2.678   2.216 -1.0214 -0.8953 -0.1160
  990TP3      O 2981   1.316   3.212   2.185 -0.5300  0.1654  0.3691
  990TP3     H1 2982   1.273   3.181   2.265  0.8346  1.3813  1.6369
  990TP3     H2 2983   1.392   3.261   2.216  0.8046 -0.4445 -1.7309
  991TP3      O 2984   1.729   3.425   2.110 -0.1876  0.2839  0.5374
  991TP3     H1 2985   1.674   3.501   2.088 -0.4261 -0.0321  0.0152
  991TP3     H2 2986   1.818   3.453   2.090 -0.2289  0.5526  0.7101
  992TP3      O 2987   0.443   1.671   2.334 -0.0703  0.0283  0.0798
  992TP3     H1 2988   0.522   1.618   2.324  0.0876  0.5663 -2.2775
  992TP3     H2 2989   0.453   1.741   2.269 -0.6790  2.4772  2.4185
  993TP3      O 2990   1.134   2.630   3.241 -0.3399 -0.2020  0.0421
  993TP3     H1 2991   1.161   2.568   3.308  1.1525 -0.1225 -0.4462
  993TP3     H2 2992   1.161   2.715   3.274  2.5491 -0.3656 -1.5786
  994TP3      O 2993   0.708   2.695   2.636 -0.4337 -0.6549  0.4355
  994TP3     H1 2994   0.660   2.748   2.700 -0.4363 -1.0563  0.7651
  994TP3     H2 2995   0.645   2.630   2.607 -0.0134 -1.3560  1.0704
  995TP3      O 2996   1.342   4.133   4.195 -0.0108 -0.3815  0.4426
  995TP3     H1 2997   1.307   4.084   4.121 -0.1082 -1.2944  1.0742
  995TP3     H2 2998   1.437   4.127   4.185  0.0206  1.5873 -0.9399
  996TP3      O 2999   1.457   3.327   3.059  0.5875 -0.4536 -0.2614
  996TP3     H1 3000   1.411   3.274   3.124 -2.8678  1.0323 -1.2224
  996TP3     H2 3001   1.480   3.408   3.105  1.0284 -0.6587 -0.1177
  997TP3      O 3002   0.996   3.219   2.576 -0.2536 -0.3654 -0.2191
  997TP3     H1 3003   0.996   3.309   2.545  0.0849 -0.0841  0.5622
  997TP3     H2 3004   0.907   3.205   2.609  0.4148  0.6712  2.3159
  998TP3      O 3005   1.805   1.479   2.326 -0.5902 -0.4639 -0.9237
  998TP3     H1 3006   1.838   1.435   2.248  1.5801 -1.8071  0.6382
  998TP3     H2 3007   1.806   1.572   2.303  2.2973 -0.6109 -1.8162
  999TP3      O 3008   0.865   2.956   3.435 -0.0843  0.4285 -0.0003
  999TP3     H1 3009   0.865   2.885   3.370  1.1364  1.5941 -1.3332
  999TP3     H2 3010   0.925   3.021   3.400 -2.6240  3.0632  0.1661
 1000TP3      O 3011   5.919   2.533   1.172 -0.0150 -0.0620 -0.1633
 1000TP3     H1 3012   5.902   2.439   1.171 -0.4965 -0.0167  1.3617
 1000TP3     H2 3013   6.014   2.540   1.159  0.1177 -0.7922  0.3607
 1001TP3      O 3014   0.355   3.439   3.407 -0.5876 -0.3915 -0.1192
 1001TP3     H1 3015   0.416   3.501   3.368 -3.6058  1.8878 -1.5541
 1001TP3     H2 3016   0.392   3.421   3.494  3.3650 -1.2110 -1.7637
 1002TP3      O 3017   0.627   1.889   2.991 -0.0357 -0.5107  0.7254
 1002TP3     H1 3018   0.581   1.928   3.066  0.1051 -1.2998  1.2360
 1002TP3     H2 3019   0.711   1.862   3.027  0.7577  0.6943 -0.1454
 1003TP3      O 3020   5.969   3.145   2.934  0.6590  0.3687  0.2931
 1003TP3     H1 3021   5.962   3.230   2.977 -0.7584 -0.1557  1.1717
 1003TP3     H2 3022   5.997   3.165   2.845 -1.0601  1.8787  0.0454
 1004TP3      O 3023   1.042   2.545   2.374  0.2160  0.1353  0.2902
 1004TP3     H1 3024   1.033   2.518   2.282  1.1669  1.2384 -0.1427
 1004TP3     H2 3025   1.107   2.486   2.410  0.7364  0.4767 -0.0820
 1005TP3      O 3026   5.802   2.247   2.750  0.2741 -0.0348  0.7733
 1005TP3     H1 3027   5.834   2.202   2.828  1.2519 -0.2184  0.2772
 1005TP3     H2 3028   5.879   2.289   2.713 -0.1253 -0.1719 -0.2433
 1006TP3      O 3029   2.051   3.154   3.216 -0.7569 -0.2346  0.2518
 1006TP3     H1 3030   2.040   3.216   3.143 -1.6002  2.2731  2.3674
 1006TP3     H2 3031   1.989   3.084   3.197  1.3888 -1.5330 -3.0865
 1007TP3      O 3032   1.326   3.103   2.479 -0.6141  0.0888  0.0599
 1007TP3     H1 3033   1.413   3.066   2.491 -0.3838 -0.0009 -1.5791
 1007TP3     H2 3034   1.337   3.197   2.491 -0.2012  0.1149 -0.4641
 1008TP3      O 3035   1.874   2.959   2.362 -0.1048 -0.0486  0.5042
 1008TP3     H1 3036   1.908   2.889   2.305  0.4437  0.3653  0.3175
 1008TP3     H2 3037   1.817   3.011   2.305 -0.6733 -0.4576  0.6942
 1009TP3      O 3038   5.514   2.566   3.063  0.3917 -0.5152 -0.2469
 1009TP3     H1 3039   5.590   2.568   3.121  0.6064 -2.8613 -0.3601
 1009TP3     H2 3040   5.474   2.480   3.079 -3.0241  1.1153  0.7713
 1010TP3      O 3041   0.478   2.493   3.699  0.0027  0.3934  0.1985
 1010TP3     H1 3042   0.403   2.466   3.752  1.2238 -0.5320  1.5316
 1010TP3     H2 3043   0.544   2.523   3.762  0.6994  1.3910 -0.9430
 1011TP3      O 3044   1.985   3.415   3.389 -0.9497  0.4938 -0.4925
 1011TP3     H1 3045   2.004   3.360   3.313  1.0713  0.3060  0.0927
 1011TP3     H2 3046   1.950   3.496   3.352 -0.5017  0.2051 -1.5815
 1012TP3      O 3047   0.709   1.950   3.606  0.4059 -0.1978  0.1677
 1012TP3     H1 3048   0.694   2.035   3.648  1.2414 -0.6316  1.4064
 1012TP3     H2 3049   0.624   1.908   3.606 -0.4138  1.2902 -2.0522
 1013TP3      O 3050   1.772   2.643   3.669  0.0764 -0.0686 -0.0138
 1013TP3     H1 3051   1.866   2.637   3.654  0.0582 -0.2014 -0.0759
 1013TP3     H2 3052   1.763   2.712   3.735  0.0888  1.1591 -1.2445
 1014TP3      O 3053   1.435   1.874   2.364  0.0598  0.5339  0.0156
 1014TP3     H1 3054   1.373   1.905   2.298 -0.4748 -0.0350  0.2319
 1014TP3     H2 3055   1.389   1.889   2.448  0.5442  0.8359  0.2288
 1015TP3      O 3056   1.103   2.749   2.841 -0.4084  0.1826  0.0231
 1015TP3     H1 3057   1.063   2.685   2.782  0.5119  0.2496 -0.7041
 1015TP3     H2 3058   1.128   2.822   2.784  1.3878 -0.1623  0.2877
 1016TP3      O 3059   1.428   2.058   2.577  0.0593 -0.0678 -0.6162
 1016TP3     H1 3060   1.472   2.120   2.635  1.3480 -1.1979 -0.3241
 1016TP3     H2 3061   1.434   2.099   2.490  1.4587 -0.0460 -0.5352
 1017TP3      O 3062   0.854   2.085   2.867 -0.0261 -1.2386  0.5629
 1017TP3     H1 3063   0.912   2.159   2.884  0.0353 -1.1546  0.0075
 1017TP3     H2 3064   0.903   2.009   2.897  0.9944 -1.3322 -1.1888
 1018TP3      O 3065   0.007   3.710   3.586  0.3499 -0.3691  0.9097
 1018TP3     H1 3066   0.010   3.631   3.639  0.0677 -1.0874 -0.1208
 1018TP3     H2 3067   0.074   3.767   3.624 -2.1252  0.6000  4.2644
 1019TP3      O 3068   0.219   2.355   2.605  0.1443  0.4511 -0.4425
 1019TP3     H1 3069   0.193   2.293   2.673  0.3236  0.9089  0.0587
 1019TP3     H2 3070   0.274   2.305   2.545 -0.2291 -0.0216 -0.3926
 1020TP3      O 3071   1.464   2.729   4.249 -0.2555  0.0760 -0.0843
 1020TP3     H1 3072   1.410   2.755   4.175 -1.2960  0.4886  0.7980
 1020TP3     H2 3073   1.501   2.811   4.282  0.1696 -0.1020 -0.1072
 1021TP3      O 3074   0.214   2.036   3.181 -0.4378  0.3395 -0.3477
 1021TP3     H1 3075   0.199   1.944   3.162 -1.7331  0.8423 -2.0607
 1021TP3     H2 3076   0.131   2.079   3.157  0.5030  2.0765 -0.6607
 1022TP3      O 3077   1.541   2.174   2.056  0.2194 -0.3423  0.1967
 1022TP3     H1 3078   1.593   2.254   2.050  1.7759 -1.2165  1.3840
 1022TP3     H2 3079   1.513   2.170   2.148  0.4564 -1.3117  0.2422
 1023TP3      O 3080   0.427   2.230   2.402  0.2001  0.1691 -0.2046
 1023TP3     H1 3081   0.390   2.142   2.414  1.3612 -0.4028 -0.6832
 1023TP3     H2 3082   0.430   2.241   2.307  1.8124 -0.0557 -0.2003
 1024TP3      O 3083   0.780   3.263   3.540  0.0364  0.7836  0.5022
 1024TP3     H1 3084   0.714   3.196   3.558  0.8886 -1.2497 -3.0223
 1024TP3     H2 3085   0.843   3.255   3.612 -2.6853  1.8698  3.2169
 1025TP3      O 3086   1.895   2.711   4.228  0.2553 -0.3156  0.3402
 1025TP3     H1 3087   1.882   2.744   4.317 -3.6235 -2.2761  0.7320
 1025TP3     H2 3088   1.884   2.788   4.172 -1.9827  0.2529  1.4498
 1026TP3      O 3089   0.434   3.175   4.569  0.1467  0.0063  0.5704
 1026TP3     H1 3090   0.463   3.085   4.557 -0.2474 -0.2116  1.1799
 1026TP3     H2 3091   0.365   3.169   4.635  0.0942  0.7503  0.5916
 1027TP3      O 3092   1.387   1.321   2.322 -0.3648  0.0046  0.0749
 1027TP3     H1 3093   1.408   1.300   2.231  1.1284 -2.0175  0.8216
 1027TP3     H2 3094   1.403   1.415   2.328  1.1079 -0.0907 -1.3837
 1028TP3      O 3095   0.832   2.735   0.525 -0.0506 -0.5935  0.0274
 1028TP3     H1 3096   0.799   2.737   0.615 -1.8831  1.5790 -0.5968
 1028TP3     H2 3097   0.866   2.823   0.510 -0.5312 -0.6589 -1.6520
 1029TP3      O 3098   0.714   2.518   2.049 -0.4842  0.4686  0.1955
 1029TP3     H1 3099   0.790   2.552   2.096 -0.5922  1.2498 -0.1892
 1029TP3     H2 3100   0.736   2.526   1.956 -0.6241 -0.2626  0.0895
 1030TP3      O 3101   5.788   2.984   2.509 -0.2235  0.0032  0.4128
 1030TP3     H1 3102   5.853   2.916   2.528 -0.1457 -0.7050 -2.0396
 1030TP3     H2 3103   5.832   3.044   2.449 -0.3490  2.2147  2.4147
 1031TP3      O 3104   0.028   2.556   2.003  0.1959 -0.5628  0.0609
 1031TP3     H1 3105   0.073   2.545   2.087  0.3613 -0.6730 -0.0412
 1031TP3     H2 3106   0.004   2.467   1.977 -0.1048 -0.5008  0.1278
 1032TP3      O 3107   0.678   2.329   4.131 -0.2108 -0.4289  0.0181
 1032TP3     H1 3108   0.657   2.406   4.183 -1.7916 -0.3395 -0.6911
 1032TP3     H2 3109   0.593   2.292   4.107  0.3666  0.0002 -3.1413
 1033TP3      O 3110   2.010   0.646   2.535  1.0179 -0.2099 -0.4046
 1033TP3     H1 3111   2.085   0.695   2.501  0.6590  0.5144 -0.1732
 1033TP3     H2 3112   1.934   0.701   2.515  0.6259 -0.5972 -0.0005
 1034TP3      O 3113   5.913   2.842   2.091  0.3532 -0.1400  0.4595
 1034TP3     H1 3114   5.833   2.877   2.053  1.0329  1.1333  0.1337
 1034TP3     H2 3115   5.958   2.799   2.018  1.4426  1.9122 -0.1687
 1035TP3      O 3116   5.225   3.239   2.945 -0.1564 -0.5097  0.3433
 1035TP3     H1 3117   5.202   3.246   2.852  0.1902 -0.6581  0.2459
 1035TP3     H2 3118   5.319   3.227   2.946  0.0898  1.1441  0.7876
 1036TP3      O 3119   0.710   3.373   2.451 -0.4068 -0.2355  0.4542
 1036TP3     H1 3120   0.665   3.451   2.418  0.2386  0.3671  0.9490
 1036TP3     H2 3121   0.763   3.343   2.377  0.9433  1.0381  0.8512
 1037TP3      O 3122   0.379   1.753   2.920  0.1309 -0.2876 -0.4706
 1037TP3     H1 3123   0.345   1.741   2.832  0.1780  0.5562 -0.6151
 1037TP3     H2 3124   0.454   1.812   2.909  0.2170 -0.2787  0.1144
 1038TP3      O 3125   0.285   1.974   2.451  0.1016  0.1908  0.2248
 1038TP3     H1 3126   0.253   1.953   2.363  2.8232  1.2663 -1.1145
 1038TP3     H2 3127   0.240   1.912   2.508 -2.6890  0.2590 -1.7033
 1039TP3      O 3128   0.137   2.230   3.689 -0.3316 -0.1685  0.9036
 1039TP3     H1 3129   0.152   2.189   3.773 -0.3765 -1.8166  0.1453
 1039TP3     H2 3130   0.060   2.185   3.653 -0.6393  0.8633  0.2109
 1040TP3      O 3131   1.383   3.252   3.317  0.2905 -0.2145  0.0536
 1040TP3     H1 3132   1.421   3.168   3.293  1.0815  0.0147  0.4821
 1040TP3     H2 3133   1.319   3.230   3.385  0.5018 -0.4726  0.1737
 1041TP3      O 3134   0.163   3.869   2.062 -0.0295 -0.2788  0.1253
 1041TP3     H1 3135   0.208   3.785   2.058 -0.8727 -0.6854 -2.2467
 1041TP3     H2 3136   0.226   3.927   2.105  2.6023 -0.9962 -2.4206
 1042TP3      O 3137   1.756   1.943   2.891 -0.0043 -0.2530 -0.3975
 1042TP3     H1 3138   1.781   2.035   2.893 -0.2265 -0.1991  0.9319
 1042TP3     H2 3139   1.824   1.898   2.942 -0.9656 -0.5047  0.7221
 1043TP3      O 3140   5.714   3.328   3.670  0.2107 -0.6063 -0.5336
 1043TP3     H1 3141   5.715   3.414   3.628  0.6276  0.0219  0.7399
 1043TP3     H2 3142   5.621   3.312   3.688  0.2934  0.5689  1.1560
 1044TP3      O 3143   1.281   2.454   2.908 -0.5609 -0.0510 -0.6978
 1044TP3     H1 3144   1.312   2.422   2.993  0.1582 -0.2377 -1.0237
 1044TP3     H2 3145   1.246   2.542   2.927  0.3108  0.2287 -0.3458
 1045TP3      O 3146   1.045   4.096   3.173  0.0095  0.6050  0.1649
 1045TP3     H1 3147   1.063   4.190   3.177 -0.4665  0.6677  2.0219
 1045TP3     H2 3148   0.950   4.089   3.167 -0.1065  0.2884  1.7563
 1046TP3      O 3149   0.495   2.659   1.056 -0.0277  0.1015 -0.0168
 1046TP3     H1 3150   0.529   2.614   1.134  2.3015 -1.3503 -1.7310
 1046TP3     H2 3151   0.454   2.738   1.091  1.8987  0.1061  2.6347
 1047TP3      O 3152   0.118   2.572   2.716 -0.0243 -0.0926  0.1725
 1047TP3     H1 3153   0.105   2.487   2.674  0.9217  0.1952 -0.7369
 1047TP3     H2 3154   0.204   2.566   2.758  0.7003  0.8591 -1.0926
 1048TP3      O 3155   0.871   2.287   3.430 -0.1289 -0.0858 -0.2627
 1048TP3     H1 3156   0.841   2.350   3.365 -0.7100  0.7552  0.7999
 1048TP3     H2 3157   0.792   2.238   3.454  0.2275 -0.9158 -0.7278
 1049TP3      O 3158   0.513   3.677   1.522  0.0255 -0.1708 -0.1726
 1049TP3     H1 3159   0.581   3.611   1.521  0.8286  0.6339 -1.3763
 1049TP3     H2 3160   0.458   3.654   1.597  0.2368 -2.2062 -0.5882
 1050TP3      O 3161   1.637   4.003   3.864 -0.6968 -0.4740  0.0967
 1050TP3     H1 3162   1.726   4.012   3.831 -0.6125  0.6546  0.5820
 1050TP3     H2 3163   1.619   3.909   3.859 -0.2642 -0.4812 -1.9628
 1051TP3      O 3164   0.841   3.462   2.695 -0.1427  0.1771  0.4058
 1051TP3     H1 3165   0.914   3.507   2.651  0.9108 -0.5201  1.3907
 1051TP3     H2 3166   0.770   3.465   2.632  0.0813  2.6463  0.1603
 1052TP3      O 3167   0.514   3.977   2.001  0.4475  0.1302  0.2987
 1052TP3     H1 3168   0.444   4.040   2.021  1.1902  0.8997  0.5704
 1052TP3     H2 3169   0.558   4.014   1.924 -0.9370 -1.6170 -1.4415
 1053TP3      O 3170   0.672   3.759   3.088 -0.0973 -0.2015 -0.3177
 1053TP3     H1 3171   0.704   3.673   3.058 -0.5064 -0.3592 -0.3052
 1053TP3     H2 3172   0.648   3.744   3.180 -0.8297 -0.2509 -0.5155
 1054TP3      O 3173   1.567   1.023   1.640  0.3762 -0.3410  1.2717
 1054TP3     H1 3174   1.536   0.988   1.723  0.7942  0.8836  1.9714
 1054TP3     H2 3175   1.533   0.962   1.574 -0.2077 -1.1691  2.3061
 1055TP3      O 3176   1.545   3.632   2.447 -0.8494 -0.2925  0.0628
 1055TP3     H1 3177   1.591   3.549   2.433 -0.0981  0.1841 -0.3388
 1055TP3     H2 3178   1.563   3.683   2.369 -2.8371 -0.4185 -0.5347
 1056TP3      O 3179   5.917   4.093   4.312  0.0293  0.0187  0.0475
 1056TP3     H1 3180   5.922   4.139   4.228  1.5610 -0.3749 -0.1146
 1056TP3     H2 3181   5.874   4.010   4.292  2.1600 -0.9575 -0.8190
 1057TP3      O 3182   1.249   3.186   2.921  0.1102  0.2516  0.3371
 1057TP3     H1 3183   1.232   3.214   2.831 -0.0525  1.5394  0.7516
 1057TP3     H2 3184   1.311   3.114   2.913 -1.9948 -1.5649 -0.9804
 1058TP3      O 3185   0.161   3.396   3.172 -0.4624  0.1521 -0.3427
 1058TP3     H1 3186   0.232   3.429   3.117  0.3500 -1.0684 -0.0650
 1058TP3     H2 3187   0.201   3.387   3.259 -1.6975  1.9936  0.4791
 1059TP3      O 3188   1.055   3.109   2.306  0.0473 -0.1116  0.6835
 1059TP3     H1 3189   1.112   3.032   2.300 -1.3957 -1.0950 -1.7449
 1059TP3     H2 3190   1.056   3.131   2.399  0.0429 -3.4659  1.6255
 1060TP3      O 3191   1.799   3.623   3.325  0.2476  0.6188 -0.3644
 1060TP3     H1 3192   1.743   3.683   3.375  0.0177  0.6833 -0.6946
 1060TP3     H2 3193   1.741   3.588   3.257  0.4633  0.2560 -0.3595
 1061TP3      O 3194   2.208   2.379   3.409  0.2624 -0.2359 -0.6873
 1061TP3     H1 3195   2.277   2.423   3.459 -2.6473  2.1354  1.6961
 1061TP3     H2 3196   2.235   2.387   3.318  1.8348  3.1631 -0.0808
 1062TP3      O 3197   0.366   2.547   2.816 -0.5778 -0.1089 -0.4138
 1062TP3     H1 3198   0.414   2.472   2.781 -0.2758 -0.8377  1.4296
 1062TP3     H2 3199   0.345   2.522   2.906 -2.0686  1.2971 -0.3219
 1063TP3      O 3200   1.698   2.906   2.570  0.3997  0.5010  0.6998
 1063TP3     H1 3201   1.786   2.907   2.531  0.3247  0.5883  0.5315
 1063TP3     H2 3202   1.665   2.994   2.556 -0.5104 -0.0546 -1.0669
 1064TP3      O 3203   1.090   2.279   2.821 -0.3431  0.3387 -0.1783
 1064TP3     H1 3204   1.023   2.347   2.813  1.4780  2.2635 -0.1836
 1064TP3     H2 3205   1.172   2.328   2.826  1.2837 -1.9229 -2.2850
 1065TP3      O 3206   1.293   1.773   2.033  0.1154 -0.0162  0.2692
 1065TP3     H1 3207   1.256   1.751   1.947 -0.2471 -0.5015  0.5429
 1065TP3     H2 3208   1.373   1.821   2.013  0.3511 -0.6446 -0.3448
 1066TP3      O 3209   0.994   3.959   2.372 -0.4905 -0.0020 -0.4796
 1066TP3     H1 3210   1.072   3.904   2.359  1.3574  2.3870 -0.3383
 1066TP3     H2 3211   1.010   4.035   2.317 -0.7018  2.4620  2.5939
 1067TP3      O 3212   1.012   3.442   4.039 -0.3741  0.4480 -0.3884
 1067TP3     H1 3213   0.965   3.359   4.031 -2.7121  1.5524  0.7665
 1067TP3     H2 3214   0.945   3.504   4.069  1.1859  2.8589 -1.6000
 1068TP3      O 3215   2.021   2.780   2.770  1.0531 -0.1519  0.3316
 1068TP3     H1 3216   2.053   2.787   2.860  1.3731  0.9457  0.1508
 1068TP3     H2 3217   1.929   2.807   2.775  1.0320 -0.2259  0.3470
 1069TP3      O 3218   1.172   2.921   2.640  0.0379 -0.5865 -0.1479
 1069TP3     H1 3219   1.219   2.992   2.595  0.5119 -0.9245 -0.1869
 1069TP3     H2 3220   1.081   2.952   2.644  0.4399  0.5266  0.8328
 1070TP3      O 3221   0.511   1.835   2.614  0.8129 -0.3323 -0.4330
 1070TP3     H1 3222   0.467   1.755   2.586 -1.7991  0.3102  1.4629
 1070TP3     H2 3223   0.463   1.906   2.572  2.6385  0.3352 -1.5093
 1071TP3      O 3224   1.201   2.730   1.989 -0.0545  0.2230  0.3793
 1071TP3     H1 3225   1.220   2.803   2.048 -0.7682  0.5608  0.1944
 1071TP3     H2 3226   1.285   2.685   1.980  0.7829  1.9105 -0.7273
 1072TP3      O 3227   1.486   2.114   3.027  0.0870  0.4095  0.0829
 1072TP3     H1 3228   1.576   2.102   3.057  1.0809  2.3855 -1.8208
 1072TP3     H2 3229   1.464   2.031   2.984  1.3816  0.2668 -0.3278
 1073TP3      O 3230   0.896   3.769   2.762  0.1410  0.1672  0.0065
 1073TP3     H1 3231   0.962   3.829   2.727  0.7239 -0.0678  0.6922
 1073TP3     H2 3232   0.900   3.781   2.856 -0.5981 -0.0663  0.0710
 1074TP3      O 3233   0.327   3.146   3.588 -0.1540  0.1599  0.4359
 1074TP3     H1 3234   0.415   3.116   3.567  0.1672  0.6095  1.1128
 1074TP3     H2 3235   0.273   3.067   3.581  0.4520 -0.3054  0.8428
 1075TP3      O 3236   0.359   2.216   4.436  0.4251  0.2846 -0.0912
 1075TP3     H1 3237   0.396   2.247   4.518  0.5369  0.4365 -0.1977
 1075TP3     H2 3238   0.266   2.238   4.440  0.4509  0.3838 -0.0487
 1076TP3      O 3239   0.041   2.214   1.416 -0.1402 -0.1281  0.3809
 1076TP3     H1 3240  -0.038   2.162   1.426  0.3545 -0.8172  0.8131
 1076TP3     H2 3241   0.074   2.191   1.329 -1.1762  1.2724 -0.4379
 1077TP3      O 3242   2.144   2.189   3.586 -0.6277  0.2020  0.1327
 1077TP3     H1 3243   2.176   2.237   3.662 -0.6360  1.6252 -0.7253
 1077TP3     H2 3244   2.165   2.245   3.511  0.7045 -1.7870 -1.0999
 1078TP3      O 3245   5.753   2.549   2.016 -0.0370  0.0866 -0.0014
 1078TP3     H1 3246   5.846   2.567   2.026 -0.0669 -0.1700  0.7685
 1078TP3     H2 3247   5.749   2.454   2.000  0.0446  0.4845 -3.0555
 1079TP3      O 3248   0.818   3.952   2.040  0.0728 -0.6376  0.3393
 1079TP3     H1 3249   0.725   3.973   2.040  0.2519  0.2219  1.6087
 1079TP3     H2 3250   0.853   3.993   2.119  1.9801  1.1339 -1.2729
 1080TP3      O 3251   0.412   2.775   3.101 -0.5716 -0.1461  0.3511
 1080TP3     H1 3252   0.381   2.841   3.164  0.9251  0.3721  0.5920
 1080TP3     H2 3253   0.383   2.692   3.138 -3.9725  0.3776 -0.7951
 1081TP3      O 3254   1.060   3.705   3.039  0.7500  0.4903  0.6038
 1081TP3     H1 3255   1.141   3.673   3.079  0.4478  0.4559  1.1950
 1081TP3     H2 3256   0.998   3.712   3.112  0.3636  0.9820  0.2358
 1082TP3      O 3257   1.379   1.817   4.097  0.5142  0.2079  0.3095
 1082TP3     H1 3258   1.323   1.869   4.040 -0.0745 -1.3845 -0.6503
 1082TP3     H2 3259   1.336   1.819   4.183 -1.5290 -1.5834 -0.5716
 1083TP3      O 3260   1.191   3.281   3.554 -0.1107 -0.4793 -0.3005
 1083TP3     H1 3261   1.141   3.232   3.489  1.9491 -2.5983 -0.4415
 1083TP3     H2 3262   1.141   3.269   3.635  0.8061 -3.9795 -0.0610
 1084TP3      O 3263   5.908   3.172   3.537 -0.3377  0.2554 -0.0369
 1084TP3     H1 3264   5.982   3.232   3.547 -0.7788  0.5267  1.8934
 1084TP3     H2 3265   5.832   3.223   3.564 -1.0352 -0.4933 -0.5504
 1085TP3      O 3266   0.976   2.599   3.029 -0.6131  0.5897  0.3025
 1085TP3     H1 3267   0.998   2.671   2.969  0.2212  0.8860  0.9392
 1085TP3     H2 3268   1.045   2.602   3.096 -0.8148 -0.5332  0.5777
 1086TP3      O 3269   1.096   1.784   1.416 -0.2001  0.0374 -1.0297
 1086TP3     H1 3270   1.138   1.710   1.461  1.2856  1.4843  0.0812
 1086TP3     H2 3271   1.169   1.833   1.378 -1.1206  1.1663 -1.3981
 1087TP3      O 3272   0.128   2.420   2.352  0.3216 -0.1794 -0.2473
 1087TP3     H1 3273   0.115   2.407   2.446 -0.1190 -1.2825 -0.4473
 1087TP3     H2 3274   0.210   2.468   2.346 -0.5926  1.6023  0.7728
 1088TP3      O 3275   1.987   2.522   2.527  1.6577 -0.6038 -0.3127
 1088TP3     H1 3276   2.026   2.609   2.527  1.3102 -0.4443 -0.6985
 1088TP3     H2 3277   2.055   2.465   2.491  1.0319 -0.0810 -2.4744
 1089TP3      O 3278   1.576   3.103   3.949 -0.2774 -0.3070  0.2292
 1089TP3     H1 3279   1.485   3.125   3.927 -0.4022 -0.2525  0.7773
 1089TP3     H2 3280   1.620   3.188   3.958  0.5747 -0.2940 -2.8827
 1090TP3      O 3281   0.555   3.247   1.576 -0.1232 -0.7514  0.9721
 1090TP3     H1 3282   0.520   3.310   1.513 -0.5805 -1.9249 -0.0090
 1090TP3     H2 3283   0.627   3.292   1.619  0.8045 -0.1972 -1.0590
 1091TP3      O 3284   5.882   3.472   3.269 -0.3705  0.8163 -0.3963
 1091TP3     H1 3285   5.950   3.430   3.322  0.1117  1.2927 -0.6184
 1091TP3     H2 3286   5.859   3.551   3.317  0.3222  1.4355 -1.0364
 1092TP3      O 3287   1.003   3.186   3.357 -0.5279 -0.0794 -0.0701
 1092TP3     H1 3288   0.998   3.274   3.321  1.5151  0.1376  0.0602
 1092TP3     H2 3289   0.984   3.129   3.283 -1.0599  0.4556 -0.3528
 1093TP3      O 3290   1.679   3.194   1.912  0.1563 -0.0956 -0.0914
 1093TP3     H1 3291   1.749   3.163   1.854  0.2369  0.8685 -0.5240
 1093TP3     H2 3292   1.716   3.272   1.954  0.2535 -0.9901  1.5784
 1094TP3      O 3293   1.611   3.168   3.479 -0.6963  0.0012 -0.7009
 1094TP3     H1 3294   1.559   3.231   3.429 -1.5463 -0.3855 -0.3362
 1094TP3     H2 3295   1.621   3.209   3.565  0.0347  0.2935 -0.9247
 1095TP3      O 3296   0.180   2.343   4.170 -0.4280  0.6470 -0.5148
 1095TP3     H1 3297   0.219   2.258   4.150  1.4459  0.9546  1.5014
 1095TP3     H2 3298   0.167   2.383   4.084  2.5595 -0.0403 -1.4088
 1096TP3      O 3299  -0.013   3.404   2.393 -0.2648 -0.2485 -0.1008
 1096TP3     H1 3300   0.077   3.374   2.400  1.1994  2.8331 -3.2170
 1096TP3     H2 3301  -0.016   3.486   2.441 -1.0056  0.3882 -1.1927
 1097TP3      O 3302   1.573   2.703   4.562  0.3347  0.2886  0.6603
 1097TP3     H1 3303   1.512   2.693   4.488  1.1339 -3.2339  0.3050
 1097TP3     H2 3304   1.516   2.717   4.638 -0.7061  0.3066 -0.0994
 1098TP3      O 3305   2.670   2.572   3.103 -0.9461 -0.0099 -0.1826
 1098TP3     H1 3306   2.661   2.660   3.140 -1.2944 -0.2629  0.3287
 1098TP3     H2 3307   2.761   2.568   3.073 -0.6040  0.1251  0.8218
 1099TP3      O 3308   1.482   2.452   3.381  0.0247 -0.2943 -0.3668
 1099TP3     H1 3309   1.502   2.407   3.464  1.7184 -1.0549 -1.1482
 1099TP3     H2 3310   1.561   2.502   3.362  0.2930 -1.3635 -2.2912
 1100TP3      O 3311   2.302   3.523   3.116  0.2087 -0.3261 -0.4296
 1100TP3     H1 3312   2.359   3.588   3.157 -0.9448  1.1941 -1.1322
 1100TP3     H2 3313   2.268   3.471   3.189  0.6167  0.3115  0.2260
 1101TP3      O 3314   0.888   2.325   3.115  0.2851 -0.1184  0.5050
 1101TP3     H1 3315   0.930   2.405   3.083  0.1181 -1.3293 -3.1004
 1101TP3     H2 3316   0.960   2.270   3.145  0.4786  0.8473  1.9691
 1102TP3      O 3317   1.069   3.504   2.852  0.4053 -0.1546  0.1950
 1102TP3     H1 3318   1.041   3.575   2.910 -2.0781 -0.9791  0.1610
 1102TP3     H2 3319   0.990   3.483   2.802  1.9079 -0.8747 -2.0176
 1103TP3      O 3320   0.949   2.555   2.690 -0.4309  0.3726 -0.2652
 1103TP3     H1 3321   0.897   2.489   2.737 -0.4943 -0.2911 -1.2404
 1103TP3     H2 3322   0.883   2.614   2.654 -0.6263 -1.0087 -2.3148
 1104TP3      O 3323   0.157   1.515   4.075  0.0754 -0.5705  0.3897
 1104TP3     H1 3324   0.099   1.502   4.151 -0.1211  1.6414  0.6859
 1104TP3     H2 3325   0.128   1.598   4.037  2.0221 -0.2093 -0.4206
 1105TP3      O 3326   1.098   3.303   2.066 -0.3746 -0.4238  0.5626
 1105TP3     H1 3327   1.156   3.346   2.004 -1.2377 -0.9151 -0.6136
 1105TP3     H2 3328   1.157   3.271   2.135  0.5391  0.5444  0.2619
 1106TP3      O 3329   0.515   3.440   3.132 -0.5279  0.5584 -0.0076
 1106TP3     H1 3330   0.484   3.530   3.147  0.1353  0.4969  2.0648
 1106TP3     H2 3331   0.608   3.444   3.154  0.4667  0.1320 -3.4526
 1107TP3      O 3332   1.405   2.868   0.922  0.6234 -0.0415 -0.3650
 1107TP3     H1 3333   1.448   2.855   1.006 -0.7979 -0.4188  0.3453
 1107TP3     H2 3334   1.442   2.802   0.865  2.0415  0.6024 -0.2311
 1108TP3      O 3335   0.439   1.639   2.014 -0.4479  0.0329 -0.6387
 1108TP3     H1 3336   0.512   1.697   1.993 -1.0680  1.4731  0.9380
 1108TP3     H2 3337   0.474   1.578   2.079 -0.7809  1.1282  0.5964
 1109TP3      O 3338   1.836   2.225   2.868  1.0395  0.5318 -0.1232
 1109TP3     H1 3339   1.879   2.270   2.941  1.3997  2.6373 -1.5355
 1109TP3     H2 3340   1.774   2.289   2.833 -0.4746 -1.0893 -0.5547
 1110TP3      O 3341   5.408   3.115   1.707  0.3225  0.5969  0.1639
 1110TP3     H1 3342   5.440   3.036   1.664  0.0229  0.9517 -0.7364
 1110TP3     H2 3343   5.487   3.164   1.728  0.4392  1.3312 -1.7861
 1111TP3      O 3344   0.367   3.529   2.185 -0.8351  0.0721 -0.6721
 1111TP3     H1 3345   0.311   3.512   2.109 -2.4565  0.7966  0.3087
 1111TP3     H2 3346   0.403   3.443   2.208 -0.2238 -0.1434 -2.3020
 1112TP3      O 3347   5.897   2.738   4.327  0.0855  0.7878 -0.5571
 1112TP3     H1 3348   5.852   2.807   4.277  0.8451  0.7935 -1.2546
 1112TP3     H2 3349   5.975   2.718   4.275 -0.7717 -1.5330 -1.0641
 1113TP3      O 3350   0.497   1.384   4.720 -0.3437 -0.3512 -0.0319
 1113TP3     H1 3351   0.512   1.377   4.814 -0.2388 -2.5776 -0.1642
 1113TP3     H2 3352   0.569   1.439   4.688 -2.2747  3.4648  1.5504
 1114TP3      O 3353   0.130   2.298   4.550 -0.8218  0.1787 -0.0235
 1114TP3     H1 3354   0.065   2.228   4.542  0.5725 -1.2516  0.6238
 1114TP3     H2 3355   0.080   2.373   4.583 -1.6927 -1.7157  3.4646
 1115TP3      O 3356   0.034   2.850   4.595 -0.1565  0.3960  0.2807
 1115TP3     H1 3357   0.099   2.920   4.604 -0.2507  0.8698 -2.0604
 1115TP3     H2 3358   0.010   2.852   4.502 -1.1742 -1.8755  0.4442
 1116TP3      O 3359   1.512   3.432   4.072 -0.2242  0.2062 -0.0140
 1116TP3     H1 3360   1.557   3.448   4.155  0.6248  0.1629 -0.4509
 1116TP3     H2 3361   1.572   3.376   4.023 -0.8303  0.0293 -0.5598
 1117TP3      O 3362   1.846   4.069   4.629  0.0940 -0.0026 -0.8384
 1117TP3     H1 3363   1.935   4.058   4.662 -0.1238 -0.0146 -0.2408
 1117TP3     H2 3364   1.853   4.051   4.535  0.6992 -0.1051 -0.7798
 1118TP3      O 3365   1.556   2.291   4.760  0.6976  0.1629  0.0608
 1118TP3     H1 3366   1.620   2.237   4.806 -0.2690  0.3644  1.7116
 1118TP3     H2 3367   1.505   2.229   4.708  2.0092 -0.0293 -1.0508
 1119TP3      O 3368   0.326   2.349   5.066  0.1296 -0.1105  0.1436
 1119TP3     H1 3369   0.270   2.308   4.999 -0.0260 -0.8462  0.7135
 1119TP3     H2 3370   0.380   2.278   5.098  1.6911  0.6605 -0.6580
 1120TP3      O 3371   0.894   3.235   5.264 -0.1829  0.6155 -0.6123
 1120TP3     H1 3372   0.865   3.263   5.177 -1.5542  0.0837 -0.3553
 1120TP3     H2 3373   0.904   3.316   5.314 -0.7533  0.8438 -0.8698
 1121TP3      O 3374   1.650   3.385   4.789 -0.4898 -0.0063  0.0916
 1121TP3     H1 3375   1.663   3.477   4.763 -1.3527 -0.1455 -0.9034
 1121TP3     H2 3376   1.555   3.373   4.787 -0.3348 -1.3770 -1.4980
 1122TP3      O 3377   0.400   2.807   5.278  0.2296  0.0192  0.4069
 1122TP3     H1 3378   0.354   2.726   5.259 -0.5065  0.0490  1.9021
 1122TP3     H2 3379   0.388   2.861   5.200 -0.6749 -0.6937  0.0449
 1123TP3      O 3380   5.863   2.222   5.533  0.6427  0.2738  0.3478
 1123TP3     H1 3381   5.928   2.227   5.603  1.3938  0.6219 -0.3568
 1123TP3     H2 3382   5.893   2.150   5.478 -0.6178 -0.8200  1.0213
 1124TP3      O 3383   1.570   4.160   5.209  0.1703  0.2457 -0.5404
 1124TP3     H1 3384   1.633   4.090   5.231  1.9791  2.6496  2.7999
 1124TP3     H2 3385   1.607   4.200   5.130  1.2698 -0.1699 -0.2627
 1125TP3      O 3386   1.269   3.151   3.936  0.1187 -0.1371  0.1132
 1125TP3     H1 3387   1.186   3.111   3.960  1.2486 -3.0137 -0.2653
 1125TP3     H2 3388   1.295   3.106   3.855  0.9081  2.4662 -1.2088
 1126TP3      O 3389   1.373   2.009   5.008 -0.1164 -0.2025 -0.3451
 1126TP3     H1 3390   1.454   1.961   4.993  0.6633  0.2739  1.9879
 1126TP3     H2 3391   1.402   2.097   5.034 -1.3460 -0.0780  0.7131
 1127TP3      O 3392   0.181   4.082   4.148  0.4920 -0.3587 -0.1072
 1127TP3     H1 3393   0.240   4.091   4.222 -1.2961 -0.1454  1.3721
 1127TP3     H2 3394   0.207   4.151   4.087 -0.4616  2.1109  2.1261
 1128TP3      O 3395   1.995   2.464   5.752  0.0537  0.4703  0.3583
 1128TP3     H1 3396   2.052   2.388   5.753 -0.0932  0.3033 -1.3127
 1128TP3     H2 3397   1.913   2.432   5.714  0.4263  1.7005 -1.6545
 1129TP3      O 3398   0.105   3.419   3.540  0.2781  0.0007  0.2794
 1129TP3     H1 3399   0.103   3.507   3.501  0.6175  0.0021  0.2640
 1129TP3     H2 3400   0.198   3.402   3.556  0.5126 -1.4060 -2.0938
 1130TP3      O 3401   5.582   2.393   4.393  0.3057 -0.1913 -0.1523
 1130TP3     H1 3402   5.647   2.422   4.328  1.1239  0.9464  1.1269
 1130TP3     H2 3403   5.626   2.403   4.477 -1.9838  2.0522  0.9092
 1131TP3      O 3404   0.964   2.974   0.155  0.1060 -0.5051  0.0993
 1131TP3     H1 3405   1.037   2.914   0.170 -0.8212 -1.7586 -0.2501
 1131TP3     H2 3406   0.903   2.925   0.100 -1.5177  0.0775  1.2801
 1132TP3      O 3407   0.557   2.298   3.494 -0.0167  0.2250 -0.2010
 1132TP3     H1 3408   0.552   2.203   3.484  0.7134  0.1433  0.1217
 1132TP3     H2 3409   0.512   2.316   3.576 -1.0109  0.2701 -0.7479
 1133TP3      O 3410   1.150   2.590   5.336 -0.2152  0.5120 -1.2755
 1133TP3     H1 3411   1.163   2.616   5.245  1.3919  2.2547 -0.6175
 1133TP3     H2 3412   1.158   2.671   5.386  0.2590 -0.5837  0.5306
 1134TP3      O 3413   0.214   2.573   5.174 -0.4359 -0.0275  0.1931
 1134TP3     H1 3414   0.143   2.598   5.115 -1.0767 -0.1336  0.9030
 1134TP3     H2 3415   0.264   2.507   5.124  0.3020  1.3992 -1.0420
 1135TP3      O 3416   1.187   3.943   4.898 -0.1832  0.5337 -0.3035
 1135TP3     H1 3417   1.198   3.975   4.988  0.1284  2.6276 -1.0245
 1135TP3     H2 3418   1.152   3.855   4.908 -3.6366  1.9307  1.8759
 1136TP3      O 3419   4.763   2.267   3.753  0.0085 -0.4409 -0.2008
 1136TP3     H1 3420   4.705   2.327   3.800 -0.0181  0.7847 -1.7317
 1136TP3     H2 3421   4.849   2.279   3.794 -0.4351 -0.9971  0.9317
 1137TP3      O 3422   1.573   2.468   4.269  0.4330 -0.4651 -0.1656
 1137TP3     H1 3423   1.586   2.440   4.178  1.2074  1.5463 -0.7169
 1137TP3     H2 3424   1.544   2.559   4.262 -0.4540 -0.5792  1.5895
 1138TP3      O 3425   0.480   3.054   4.187  0.3669  0.0911 -0.2972
 1138TP3     H1 3426   0.497   3.050   4.093  0.7910  0.6272 -0.2519
 1138TP3     H2 3427   0.428   2.976   4.206  0.2992 -0.0305 -0.9716
 1139TP3      O 3428   0.043   1.847   5.704  0.0331 -0.7665  0.5781
 1139TP3     H1 3429   0.014   1.935   5.729  2.0454  1.5030 -3.8336
 1139TP3     H2 3430   0.136   1.846   5.727 -0.0446 -1.9468  0.9004
 1140TP3      O 3431   0.421   3.630   4.609 -0.1062 -0.5277  0.2733
 1140TP3     H1 3432   0.378   3.592   4.685  0.2330  0.5390  1.0182
 1140TP3     H2 3433   0.471   3.557   4.571 -4.3262 -2.5227 -2.0783
 1141TP3      O 3434   2.575   3.494   5.404  0.0579 -0.4692 -0.0840
 1141TP3     H1 3435   2.514   3.552   5.449  1.7878  1.0089  0.4854
 1141TP3     H2 3436   2.633   3.463   5.474  1.0470 -0.3989 -0.8543
 1142TP3      O 3437   0.990   0.916   2.796  0.1573  0.7539 -0.4857
 1142TP3     H1 3438   0.969   0.953   2.711  1.0114  0.9951 -0.5974
 1142TP3     H2 3439   1.007   0.991   2.852  1.0206  0.5621 -0.4815
 1143TP3      O 3440   5.869   2.946   4.165 -0.1269 -0.2151 -0.5829
 1143TP3     H1 3441   5.805   2.909   4.104 -0.8899 -1.8285  1.0967
 1143TP3     H2 3442   5.933   2.989   4.109 -2.6580  1.5025 -2.3250
 1144TP3      O 3443   1.839   3.012   3.567  0.0802 -0.4268 -0.1624
 1144TP3     H1 3444   1.867   2.927   3.533  0.5175 -0.1126 -0.5952
 1144TP3     H2 3445   1.745   3.016   3.547  0.2585 -0.3938 -1.0468
 1145TP3      O 3446   1.886   3.781   5.933  0.3874  0.2088  0.0214
 1145TP3     H1 3447   1.910   3.862   5.887 -0.4017  0.1464 -0.5108
 1145TP3     H2 3448   1.791   3.788   5.945  0.0204 -1.4392 -1.6054
 1146TP3      O 3449   0.367   2.702   5.763  0.7457 -0.3499  0.9656
 1146TP3     H1 3450   0.461   2.699   5.779  0.6970 -2.3496  1.1312
 1146TP3     H2 3451   0.352   2.639   5.693 -0.4425  0.2168  0.6732
 1147TP3      O 3452   1.851   3.530   5.221  0.5144  0.8251  0.2147
 1147TP3     H1 3453   1.821   3.616   5.192 -2.8431  0.6486  2.6020
 1147TP3     H2 3454   1.837   3.472   5.145  0.2784  1.8657 -0.5506
 1148TP3      O 3455   1.534   3.598   5.348  0.3046  0.3248 -0.6402
 1148TP3     H1 3456   1.504   3.662   5.284 -1.1180  0.7075  0.3794
 1148TP3     H2 3457   1.505   3.513   5.313 -2.4001  0.7055  0.4864
 1149TP3      O 3458   1.170   2.485   3.737 -0.0319 -0.0237 -0.3717
 1149TP3     H1 3459   1.135   2.518   3.820  1.2966  1.7619 -0.4567
 1149TP3     H2 3460   1.237   2.422   3.762 -0.8681 -0.8648 -0.1637
 1150TP3      O 3461   2.253   1.842   5.111  0.3648  0.1302  0.0233
 1150TP3     H1 3462   2.230   1.852   5.019 -0.1058 -2.6462 -0.2541
 1150TP3     H2 3463   2.207   1.763   5.139 -0.8344  1.7850  3.1478
 1151TP3      O 3464   2.097   3.422   4.133  0.8792 -0.0275  0.2029
 1151TP3     H1 3465   2.021   3.481   4.133 -0.3500 -1.5624  0.9841
 1151TP3     H2 3466   2.138   3.436   4.218  1.6989  1.0123 -0.3277
 1152TP3      O 3467   1.533   3.005   4.340 -0.3499  0.0963  0.3812
 1152TP3     H1 3468   1.581   3.057   4.405  0.6062 -0.9758  0.5559
 1152TP3     H2 3469   1.489   3.070   4.285  0.3777  1.0675  0.9187
 1153TP3      O 3470   1.725   2.246   5.437 -0.2017 -0.4780  0.5759
 1153TP3     H1 3471   1.635   2.236   5.403 -0.0533 -2.4826  0.6406
 1153TP3     H2 3472   1.777   2.188   5.382  0.4802 -1.8655  2.5923
 1154TP3      O 3473   1.355   2.430   4.871 -0.3441 -0.0958 -0.7557
 1154TP3     H1 3474   1.426   2.394   4.819 -0.2859  0.5358 -1.1226
 1154TP3     H2 3475   1.279   2.431   4.813 -0.3690  0.2776 -0.7221
 1155TP3      O 3476   0.366   1.563   5.254  0.0094  0.4992 -0.0617
 1155TP3     H1 3477   0.329   1.517   5.330  0.4781  0.8559  0.3871
 1155TP3     H2 3478   0.458   1.575   5.276  0.2177  0.3610 -0.8130
 1156TP3      O 3479   0.578   3.401   4.547 -0.3907 -0.1414  0.6884
 1156TP3     H1 3480   0.519   3.330   4.525  0.4050 -0.3381 -0.9735
 1156TP3     H2 3481   0.657   3.358   4.578  0.0968 -0.0255 -0.3288
 1157TP3      O 3482   0.076   2.582   3.240  0.6210  0.1611  0.1262
 1157TP3     H1 3483   0.080   2.488   3.255  0.5056  0.2653  0.8398
 1157TP3     H2 3484   0.087   2.621   3.327  0.0211  0.7920 -0.0703
 1158TP3      O 3485   0.642   2.559   5.165  0.0641 -0.2610 -0.1961
 1158TP3     H1 3486   0.602   2.642   5.137  1.2827  0.6011  0.5613
 1158TP3     H2 3487   0.649   2.508   5.084 -0.6369  0.3872 -0.6805
 1159TP3      O 3488   0.590   2.769   3.931 -0.4605 -0.0066 -0.0344
 1159TP3     H1 3489   0.633   2.853   3.917 -0.0069 -0.4199 -1.3248
 1159TP3     H2 3490   0.652   2.704   3.897 -0.3826 -0.9617  1.8270
 1160TP3      O 3491   1.666   3.020   5.909 -0.5128 -0.2995 -0.7759
 1160TP3     H1 3492   1.593   3.009   5.849 -1.6284  0.2343  0.4509
 1160TP3     H2 3493   1.700   3.108   5.890 -1.1010  0.0167 -0.3797
 1161TP3      O 3494   1.474   3.899   4.346  0.0162 -0.7828 -0.6921
 1161TP3     H1 3495   1.475   3.931   4.436 -4.1542  0.8436 -1.0116
 1161TP3     H2 3496   1.507   3.973   4.294  0.5258 -1.0060 -0.6999
 1162TP3      O 3497   1.108   1.839   5.502  0.2443  0.3870 -0.1573
 1162TP3     H1 3498   1.072   1.833   5.414  0.3930 -0.8515 -0.1432
 1162TP3     H2 3499   1.098   1.751   5.539 -0.9503  1.1523  1.5012
 1163TP3      O 3500   0.419   3.653   3.989 -0.0385 -0.0078  0.5891
 1163TP3     H1 3501   0.370   3.628   4.066 -0.9315  0.2480  0.1125
 1163TP3     H2 3502   0.452   3.741   4.009 -1.1750  0.5026  0.2632
 1164TP3      O 3503   1.049   3.399   4.493  0.0425  0.3324  0.2103
 1164TP3     H1 3504   1.143   3.405   4.509  0.0240 -0.2927  0.5528
 1164TP3     H2 3505   1.036   3.311   4.458 -0.3054  0.7027 -0.6372
 1165TP3      O 3506   1.202   2.419   4.652 -0.4795 -0.2426  0.5213
 1165TP3     H1 3507   1.199   2.433   4.557  0.5522 -2.6898  0.0581
 1165TP3     H2 3508   1.147   2.343   4.667  1.9946 -1.9765  1.3642
 1166TP3      O 3509   2.539   2.936   5.235  0.4489  0.5666 -0.1137
 1166TP3     H1 3510   2.584   2.973   5.159  0.6320 -0.1154 -0.3464
 1166TP3     H2 3511   2.563   2.994   5.307  0.0612  1.3763 -0.6136
 1167TP3      O 3512   1.238   3.480   3.912  0.3137  0.0262  0.0940
 1167TP3     H1 3513   1.307   3.445   3.967 -0.5908  1.6991  2.4284
 1167TP3     H2 3514   1.158   3.439   3.944  0.0888 -2.2819 -2.8958
 1168TP3      O 3515   1.791   2.509   4.615  0.4674 -0.4672 -0.1728
 1168TP3     H1 3516   1.703   2.489   4.646 -0.0769  0.6582 -0.8893
 1168TP3     H2 3517   1.790   2.604   4.602  1.3094 -0.6241 -1.5925
 1169TP3      O 3518   0.636   3.017   0.078  0.1085 -0.4378  0.3153
 1169TP3     H1 3519   0.555   2.989   0.035 -0.2330  0.8093  0.1097
 1169TP3     H2 3520   0.678   2.935   0.106 -1.3430 -1.0921  0.6625
 1170TP3      O 3521   1.049   3.915   4.037  0.0953 -0.0740 -0.3602
 1170TP3     H1 3522   1.113   3.846   4.054  0.9713  0.9740  0.7784
 1170TP3     H2 3523   1.085   3.962   3.961 -0.1232 -0.4033 -0.6724
 1171TP3      O 3524   0.106   1.836   5.405  0.2417 -0.3256 -0.2093
 1171TP3     H1 3525   0.019   1.852   5.368  0.6875 -0.5835 -1.4066
 1171TP3     H2 3526   0.093   1.842   5.499 -0.7492  1.2619 -0.4174
 1172TP3      O 3527   2.656   2.889   4.246 -0.7869  0.3143 -0.1554
 1172TP3     H1 3528   2.573   2.860   4.207 -2.1653  1.8382  1.4948
 1172TP3     H2 3529   2.668   2.831   4.322 -0.9479  0.8093  0.2548
 1173TP3      O 3530   5.854   3.807   4.259 -0.2367 -0.0562  0.0662
 1173TP3     H1 3531   5.909   3.782   4.334 -0.6185 -0.7741  0.1094
 1173TP3     H2 3532   5.914   3.807   4.185  0.5137  2.2036  0.5915
 1174TP3      O 3533   1.711   3.341   3.902 -0.0355  0.0815  0.1452
 1174TP3     H1 3534   1.772   3.414   3.907  0.6857 -0.5800  1.4520
 1174TP3     H2 3535   1.763   3.268   3.868 -0.2714 -0.2933  0.5741
 1175TP3      O 3536   0.636   3.655   3.801 -0.1442  0.0113 -0.0430
 1175TP3     H1 3537   0.559   3.629   3.850  0.4182 -1.2173  0.2313
 1175TP3     H2 3538   0.650   3.746   3.824 -1.5539  0.2812 -0.1707
 1176TP3      O 3539   1.248   3.495   4.289  0.4823 -0.7269 -0.1638
 1176TP3     H1 3540   1.288   3.412   4.262  0.5138 -0.4774 -0.9109
 1176TP3     H2 3541   1.154   3.476   4.293  0.5889 -1.1071  0.8337
 1177TP3      O 3542   1.102   2.703   3.583  0.3059  0.1654 -0.4482
 1177TP3     H1 3543   1.023   2.735   3.625 -0.5669 -1.2313 -0.9702
 1177TP3     H2 3544   1.135   2.635   3.642 -0.2377 -0.9281 -1.3500
 1178TP3      O 3545   1.077   2.848   4.995  0.0377 -0.0449  0.3612
 1178TP3     H1 3546   0.983   2.860   5.012 -0.2160  3.8381 -2.5053
 1178TP3     H2 3547   1.082   2.830   4.902  2.1463  0.1106  0.4116
 1179TP3      O 3548   0.697   1.583   3.974 -0.2762  0.7550  0.5354
 1179TP3     H1 3549   0.608   1.581   4.009 -0.1008  0.9310  1.0036
 1179TP3     H2 3550   0.746   1.637   4.036  0.4212 -0.3035  0.9252
 1180TP3      O 3551   0.585   2.152   5.086  0.0618  0.0809  0.2785
 1180TP3     H1 3552   0.594   2.092   5.160  2.2728 -0.3622 -0.2825
 1180TP3     H2 3553   0.656   2.214   5.097 -2.2404  2.7860  0.9015
 1181TP3      O 3554   0.796   2.897   5.688 -0.0577 -0.2445 -0.8072
 1181TP3     H1 3555   0.719   2.951   5.670  1.2740  1.6854 -1.0173
 1181TP3     H2 3556   0.860   2.924   5.623  0.2960 -3.0854 -1.8026
 1182TP3      O 3557   2.104   1.846   4.826  0.5720  0.3145 -0.3435
 1182TP3     H1 3558   2.119   1.752   4.831  0.5301  0.3494  1.1844
 1182TP3     H2 3559   2.161   1.876   4.755  0.7267 -0.8277 -0.7224
 1183TP3      O 3560   0.878   2.679   4.135 -0.0226 -0.2288 -0.3867
 1183TP3     H1 3561   0.839   2.621   4.200  0.6597 -0.8631 -0.5450
 1183TP3     H2 3562   0.951   2.722   4.180 -0.1889  0.1103 -0.4318
 1184TP3      O 3563   1.871   1.923   3.829  0.4599  0.6315 -0.2511
 1184TP3     H1 3564   1.878   1.947   3.737  2.0386 -0.6599 -0.5025
 1184TP3     H2 3565   1.843   1.832   3.829 -1.7463  1.2184  0.6376
 1185TP3      O 3566   0.929   1.320   3.574 -0.0859 -0.7865  0.1517
 1185TP3     H1 3567   1.007   1.272   3.601 -0.1813 -0.7536  0.4866
 1185TP3     H2 3568   0.925   1.307   3.479 -0.9070 -2.6499  0.4003
 1186TP3      O 3569   0.827   3.651   4.863 -0.0813  0.5387  0.3630
 1186TP3     H1 3570   0.772   3.667   4.787  0.0092 -1.5903 -0.2194
 1186TP3     H2 3571   0.846   3.738   4.898 -3.6712  1.4327  0.5339
 1187TP3      O 3572   0.952   1.855   4.372  0.1158  0.6460 -0.3290
 1187TP3     H1 3573   1.025   1.904   4.334  0.9014 -2.0523 -2.6279
 1187TP3     H2 3574   0.976   1.845   4.464  1.9541  1.0604 -0.7139
 1188TP3      O 3575   0.640   1.351   4.136  0.5251 -0.2974  0.6331
 1188TP3     H1 3576   0.630   1.262   4.102 -0.2626  0.4558 -1.2059
 1188TP3     H2 3577   0.665   1.403   4.060 -0.1329  1.2663  1.4518
 1189TP3      O 3578   1.759   3.028   5.064 -0.1273 -0.3071 -0.1089
 1189TP3     H1 3579   1.849   3.022   5.032  0.3252 -2.7006  1.3195
 1189TP3     H2 3580   1.758   2.972   5.142 -1.5252  3.7375  3.1728
 1190TP3      O 3581   1.499   3.710   5.635 -0.2116  0.1844  0.2258
 1190TP3     H1 3582   1.471   3.801   5.638 -1.7943 -0.2612  3.9421
 1190TP3     H2 3583   1.475   3.681   5.547 -0.1295  3.1452 -0.8766
 1191TP3      O 3584   0.365   3.256   3.830 -1.0018  0.1828 -0.5030
 1191TP3     H1 3585   0.322   3.215   3.755 -2.6578 -1.7074  1.3234
 1191TP3     H2 3586   0.298   3.256   3.899  0.2397  2.4097  0.8299
 1192TP3      O 3587   1.129   3.280   5.022 -0.4326  0.4365  0.1912
 1192TP3     H1 3588   1.108   3.338   5.095  1.8142  1.3681  0.1729
 1192TP3     H2 3589   1.135   3.193   5.061  1.5032  1.0247  1.3306
 1193TP3      O 3590   0.625   1.868   3.884  0.1979  0.1721  1.3804
 1193TP3     H1 3591   0.692   1.901   3.824  0.0785 -2.9184 -0.6591
 1193TP3     H2 3592   0.673   1.838   3.960  1.2763 -2.0016 -0.0604
 1194TP3      O 3593   0.305   1.596   4.350 -0.0624 -0.2472  0.1347
 1194TP3     H1 3594   0.258   1.513   4.340 -0.4483 -0.0280  0.1131
 1194TP3     H2 3595   0.325   1.601   4.443 -1.2974  0.3067  0.3852
 1195TP3      O 3596   0.765   1.620   5.508  0.4132  0.4440 -0.6603
 1195TP3     H1 3597   0.708   1.576   5.572 -0.4526 -0.3806 -1.9487
 1195TP3     H2 3598   0.854   1.597   5.535  0.1894  1.6457  1.3180
 1196TP3      O 3599   0.734   2.114   4.347 -0.2898  0.3671  0.7069
 1196TP3     H1 3600   0.722   2.161   4.264 -1.6795 -1.0718  0.0430
 1196TP3     H2 3601   0.748   2.183   4.412 -0.8023  1.6185 -0.4659
 1197TP3      O 3602   1.324   2.224   4.225  0.1417 -0.0736  0.1550
 1197TP3     H1 3603   1.387   2.163   4.186  0.5607  0.5984 -0.2397
 1197TP3     H2 3604   1.305   2.287   4.155  0.2919  0.6829  0.7849
 1198TP3      O 3605   1.320   3.199   4.236  0.0427  0.3796 -0.0751
 1198TP3     H1 3606   1.301   3.176   4.145 -1.4902  1.2949 -0.0118
 1198TP3     H2 3607   1.239   3.180   4.283  0.0460  2.0522  0.6835
 1199TP3      O 3608   1.267   2.900   4.473 -0.6673 -0.2379 -0.1221
 1199TP3     H1 3609   1.236   2.990   4.471 -0.2648 -0.0797  0.7366
 1199TP3     H2 3610   1.354   2.905   4.513 -0.4752 -0.9625 -0.4273
 1200TP3      O 3611   1.643   2.076   4.556 -0.4120  0.7494 -0.0639
 1200TP3     H1 3612   1.668   2.140   4.490  2.2655 -0.9413 -0.8754
 1200TP3     H2 3613   1.674   1.992   4.521 -6.0850 -1.6864 -0.4173
 1201TP3      O 3614   0.185   4.353   2.506 -0.0259  0.4095 -0.2902
 1201TP3     H1 3615   0.211   4.395   2.424  1.7438  0.6136  0.3400
 1201TP3     H2 3616   0.108   4.402   2.535 -0.4195  0.6015 -1.6082
 1202TP3      O 3617   2.021   2.973   4.082  0.0770  0.0932  0.4555
 1202TP3     H1 3618   2.098   3.027   4.100  0.7416 -0.8053  0.3757
 1202TP3     H2 3619   1.949   3.022   4.120  0.2831  2.1925 -1.6336
 1203TP3      O 3620   1.291   1.838   4.605 -0.0052  0.4755  0.0607
 1203TP3     H1 3621   1.281   1.791   4.522  1.5174  0.9871 -0.4327
 1203TP3     H2 3622   1.229   1.795   4.664 -1.7859  0.6901 -1.5624
 1204TP3      O 3623   0.841   2.061   4.725 -0.2924  0.4232  0.1328
 1204TP3     H1 3624   0.860   2.113   4.803  2.0788 -1.1858  0.7403
 1204TP3     H2 3625   0.903   2.093   4.660 -0.4094 -0.0426 -0.2137
 1205TP3      O 3626   1.425   3.273   5.445 -0.2398  0.9549  0.4767
 1205TP3     H1 3627   1.475   3.209   5.495  0.0091  0.5839 -0.2254
 1205TP3     H2 3628   1.427   3.240   5.355 -0.9106  1.4552  0.2657
 1206TP3      O 3629   1.172   2.929   5.328  0.1861  0.8236 -0.2124
 1206TP3     H1 3630   1.158   2.949   5.235  0.4238  2.3213  0.0385
 1206TP3     H2 3631   1.267   2.925   5.338  0.1422 -0.6337 -0.2670
 1207TP3      O 3632   0.649   2.660   5.807 -0.5049  0.4405  0.2127
 1207TP3     H1 3633   0.715   2.624   5.867 -0.2278  1.4261  0.5130
 1207TP3     H2 3634   0.676   2.750   5.793 -1.2256  0.5581 -0.4850
 1208TP3      O 3635   1.416   3.769   5.173 -0.8216 -0.5994  0.0395
 1208TP3     H1 3636   1.506   3.799   5.169 -0.9046  0.0593  1.9399
 1208TP3     H2 3637   1.404   3.717   5.093  0.4961  1.2192 -1.4229
 1209TP3      O 3638   1.514   3.064   4.649  0.2720 -0.2655  0.8095
 1209TP3     H1 3639   1.530   3.158   4.657  1.5343 -0.3849  0.0765
 1209TP3     H2 3640   1.601   3.024   4.662  0.0186 -1.2230 -0.2791
 1210TP3      O 3641   1.100   2.022   4.924  0.1033 -0.9315 -0.8856
 1210TP3     H1 3642   1.183   1.987   4.957 -0.9648 -2.5481  0.2044
 1210TP3     H2 3643   1.051   1.945   4.896 -2.0954 -0.3125  0.9932
 1211TP3      O 3644   0.141   3.258   0.341 -0.4631 -0.2986 -0.1953
 1211TP3     H1 3645   0.230   3.233   0.364 -0.6757  1.0075  2.3506
 1211TP3     H2 3646   0.132   3.233   0.249  1.2412 -3.9515  0.4790
 1212TP3      O 3647   1.106   2.192   3.220 -0.0543 -0.2012  0.6914
 1212TP3     H1 3648   1.187   2.244   3.219 -2.1473  3.5551  2.9265
 1212TP3     H2 3649   1.112   2.141   3.300  0.1501 -0.0134  0.7979
 1213TP3      O 3650   1.008   3.124   4.415 -0.1420 -0.3881  0.0026
 1213TP3     H1 3651   0.940   3.071   4.372 -1.3167  0.4614  0.7526
 1213TP3     H2 3652   1.017   3.084   4.502  3.5725 -3.2970 -1.4541
 1214TP3      O 3653   1.568   1.843   5.245  0.0378  0.9423  0.0288
 1214TP3     H1 3654   1.521   1.760   5.250 -1.0944  1.6175  2.8757
 1214TP3     H2 3655   1.657   1.823   5.273 -0.6803  0.8663  2.5328
 1215TP3      O 3656   0.060   3.468   4.648  0.2808  0.1510 -0.2405
 1215TP3     H1 3657  -0.023   3.461   4.600 -0.3704  1.8619  0.5367
 1215TP3     H2 3658   0.035   3.506   4.732  1.7735 -0.0460  0.3133
 1216TP3      O 3659   0.797   2.952   4.048 -0.5334 -0.1340 -0.2814
 1216TP3     H1 3660   0.828   2.862   4.041 -0.1101  0.0006 -0.1302
 1216TP3     H2 3661   0.768   2.960   4.139 -1.1412 -0.2977 -0.4539
 1217TP3      O 3662   5.964   2.366   4.818 -0.1200  0.3792  0.3410
 1217TP3     H1 3663   5.931   2.413   4.895  0.4025 -0.4029  1.0603
 1217TP3     H2 3664   6.052   2.402   4.805 -0.3777  0.8286 -0.1694
 1218TP3      O 3665   0.966   2.670   4.466  0.1046 -0.1144  0.1001
 1218TP3     H1 3666   0.892   2.635   4.417  0.4002 -1.7905  0.8122
 1218TP3     H2 3667   1.036   2.677   4.401  0.4344 -2.1437  0.1692
 1219TP3      O 3668   1.085   2.696   4.708  0.5815 -0.4035 -0.1976
 1219TP3     H1 3669   1.039   2.673   4.627  0.7611 -2.7951  0.3082
 1219TP3     H2 3670   1.158   2.635   4.713 -0.0526 -1.0850  2.2856
 1220TP3      O 3671   2.234   2.948   4.706 -0.7887  0.6459  0.4348
 1220TP3     H1 3672   2.312   2.923   4.656 -1.3217  0.2409 -0.2090
 1220TP3     H2 3673   2.215   3.037   4.676 -0.8425  0.5721  0.2458
 1221TP3      O 3674   0.658   4.245   4.826 -0.3113 -0.0148  0.3633
 1221TP3     H1 3675   0.752   4.229   4.819 -0.1901 -0.2329  1.9960
 1221TP3     H2 3676   0.621   4.212   4.745  1.0435  0.3002 -0.4150
 1222TP3      O 3677   0.611   2.439   4.912 -0.1634  0.5383  0.3391
 1222TP3     H1 3678   0.696   2.449   4.869  0.0320 -0.8724  0.3719
 1222TP3     H2 3679   0.566   2.373   4.860 -0.0127 -1.0316  2.1278
 1223TP3      O 3680   2.349   3.465   5.967 -0.0417  0.2454 -0.0798
 1223TP3     H1 3681   2.436   3.504   5.966  0.3758 -0.6767 -0.5667
 1223TP3     H2 3682   2.357   3.387   6.021 -0.3262 -0.3585 -0.8847
 1224TP3      O 3683   1.004   2.728   5.683 -0.2103 -0.3966 -0.0226
 1224TP3     H1 3684   0.988   2.634   5.693  0.6010 -0.3906  1.8020
 1224TP3     H2 3685   0.920   2.769   5.705 -0.7303 -0.6806 -1.3772
 1225TP3      O 3686   0.785   1.388   5.725 -0.0544  0.1398  0.5355
 1225TP3     H1 3687   0.728   1.329   5.675 -0.4634 -0.2701  1.4641
 1225TP3     H2 3688   0.871   1.348   5.720  0.3976  1.2203 -1.6246
 1226TP3      O 3689   0.821   3.381   4.635  0.6770  0.0401  0.0920
 1226TP3     H1 3690   0.897   3.399   4.578 -2.1850  0.4859 -4.0898
 1226TP3     H2 3691   0.779   3.467   4.645 -0.3070 -0.4989  0.6876
 1227TP3      O 3692   1.626   1.872   4.982  0.7940  0.1150 -0.3462
 1227TP3     H1 3693   1.703   1.816   4.968 -0.6949 -1.8344 -1.3642
 1227TP3     H2 3694   1.609   1.866   5.076  0.9491 -0.8236 -0.3614
 1228TP3      O 3695   1.105   2.807   4.252 -0.2299  0.0872 -0.2501
 1228TP3     H1 3696   1.161   2.759   4.191 -0.6710 -0.7255 -0.0286
 1228TP3     H2 3697   1.166   2.857   4.307  0.2527 -0.4115 -0.3231
 1229TP3      O 3698   0.803   2.143   0.036 -0.7071  0.5740 -0.4434
 1229TP3     H1 3699   0.825   2.106   0.122  3.1048  0.8598 -1.1229
 1229TP3     H2 3700   0.709   2.158   0.040 -1.3472 -2.8655  2.3082
 1230TP3      O 3701   5.915   3.040   5.051 -0.8770  0.4077 -1.0392
 1230TP3     H1 3702   5.938   3.022   5.142 -0.0221  2.3883 -0.8273
 1230TP3     H2 3703   5.821   3.058   5.054 -0.6389  1.6392 -0.3227
 1231TP3      O 3704   0.768   2.976   4.330 -0.2032  0.7022  0.1250
 1231TP3     H1 3705   0.771   2.946   4.421  2.4961  0.5276  0.0566
 1231TP3     H2 3706   0.679   2.955   4.301 -0.6804 -0.5740  2.2774
 1232TP3      O 3707   1.850   2.491   5.426  0.3505 -0.4563  0.1646
 1232TP3     H1 3708   1.938   2.514   5.396  0.4408 -0.1594  0.6493
 1232TP3     H2 3709   1.844   2.397   5.409  0.7068 -0.4529 -0.0062
 1233TP3      O 3710   0.097   1.305   4.319  0.6599  0.3697 -0.2178
 1233TP3     H1 3711   0.005   1.304   4.345  0.2188  2.6318 -1.4424
 1233TP3     H2 3712   0.145   1.311   4.402 -0.3534  0.3118  0.3856
 1234TP3      O 3713   1.629   2.400   4.004  0.4339  0.1126  0.7360
 1234TP3     H1 3714   1.675   2.334   3.951 -0.5955  1.1477 -1.5968
 1234TP3     H2 3715   1.696   2.465   4.026  0.6341  0.3099 -0.4177
 1235TP3      O 3716   1.476   2.694   4.807 -0.2831 -0.5054 -0.2239
 1235TP3     H1 3717   1.567   2.699   4.839 -0.5432  0.2223  0.4410
 1235TP3     H2 3718   1.435   2.626   4.859 -0.4814  0.1117  0.4438
 1236TP3      O 3719   1.183   3.700   5.494 -0.2708 -0.5195  0.0747
 1236TP3     H1 3720   1.210   3.618   5.536  1.9060  0.4767  0.7505
 1236TP3     H2 3721   1.243   3.766   5.529 -0.9101  1.0764 -1.6879
 1237TP3      O 3722   2.266   4.094   5.784  0.2310  0.3918  0.6116
 1237TP3     H1 3723   2.233   4.184   5.787 -1.3477 -0.1754  1.7817
 1237TP3     H2 3724   2.306   4.086   5.698  1.3798  2.5248  0.8619
 1238TP3      O 3725   5.932   2.922   0.188 -0.2529 -0.4386  0.1041
 1238TP3     H1 3726   5.892   2.983   0.250 -0.2100  0.6183 -0.8679
 1238TP3     H2 3727   5.871   2.848   0.185 -1.4245  0.5040 -0.2564
 1239TP3      O 3728   1.047   3.052   4.066 -0.1298  0.3730 -0.3751
 1239TP3     H1 3729   1.072   2.983   4.127  0.0945  0.0102 -0.8702
 1239TP3     H2 3730   0.957   3.073   4.089  0.7202  2.0770  1.7963
 1240TP3      O 3731   2.037   2.684   3.010 -0.3414  0.5698  0.1246
 1240TP3     H1 3732   2.131   2.668   3.015 -0.2218  1.4073  0.9703
 1240TP3     H2 3733   1.998   2.613   3.060 -0.1033  0.6108  0.3694
 1241TP3      O 3734   1.229   2.926   3.762 -0.1854 -0.0199 -0.1920
 1241TP3     H1 3735   1.269   2.848   3.723 -0.3056 -0.0041 -0.3466
 1241TP3     H2 3736   1.141   2.930   3.724  0.2457  0.8873 -1.1513
 1242TP3      O 3737   0.989   3.230   3.769  0.1230 -0.2235  0.5814
 1242TP3     H1 3738   0.921   3.260   3.830  0.9552 -0.4025  1.6377
 1242TP3     H2 3739   0.995   3.136   3.786 -1.8431 -0.9511 -2.0691
 1243TP3      O 3740   0.813   2.329   4.529  0.0016 -0.1686  0.2362
 1243TP3     H1 3741   0.891   2.342   4.475 -0.0180 -0.2542  0.1863
 1243TP3     H2 3742   0.846   2.335   4.619 -0.4573  3.0083  0.2933
 1244TP3      O 3743   0.740   2.760   0.129 -1.0028  0.4619 -0.0764
 1244TP3     H1 3744   0.775   2.694   0.070  1.2245  1.5009 -0.0043
 1244TP3     H2 3745   0.699   2.710   0.200  0.6798 -0.8499  0.0099
 1245TP3      O 3746   0.884   2.015   5.795 -0.1566 -0.3526 -0.5811
 1245TP3     H1 3747   0.859   2.071   5.869  1.5486 -1.8403  1.2407
 1245TP3     H2 3748   0.812   2.023   5.734 -1.6008  1.0780  1.1782
 1246TP3      O 3749   5.777   2.577   3.719  0.3680  0.0375  0.1216
 1246TP3     H1 3750   5.812   2.664   3.735  1.3748  0.1561 -2.2553
 1246TP3     H2 3751   5.727   2.556   3.798 -1.1927  3.3671  0.1840
 1247TP3      O 3752   4.663   2.727   4.878  0.2398 -0.7243  0.6921
 1247TP3     H1 3753   4.652   2.819   4.901 -0.4444 -0.5192 -0.4273
 1247TP3     H2 3754   4.652   2.724   4.783  0.8989 -1.8686  0.6363
 1248TP3      O 3755   0.492   3.965   4.965 -0.6595 -0.0656 -0.3672
 1248TP3     H1 3756   0.505   3.957   5.060 -1.4693 -1.1381 -0.3280
 1248TP3     H2 3757   0.505   4.058   4.947  0.7610 -0.0411  0.5971
 1249TP3      O 3758   1.555   3.639   4.963 -0.3306  0.5177 -0.5348
 1249TP3     H1 3759   1.518   3.586   4.893 -0.6702  1.4058 -1.0459
 1249TP3     H2 3760   1.566   3.726   4.924 -0.4066  0.9960  0.4742
 1250TP3      O 3761   5.505   1.961   4.893 -0.2194 -0.1281 -0.6888
 1250TP3     H1 3762   5.454   2.041   4.882  0.2656  0.1283 -1.1866
 1250TP3     H2 3763   5.525   1.958   4.986 -0.6798  0.0587 -0.5810
 1251TP3      O 3764   0.902   2.061   5.425  0.0745 -0.2743 -0.2108
 1251TP3     H1 3765   0.979   2.043   5.480  0.2124  1.8675  0.4044
 1251TP3     H2 3766   0.939   2.090   5.341 -0.0742 -0.2178 -0.2573
 1252TP3      O 3767   1.739   2.677   4.856  0.1106  0.3587  0.1747
 1252TP3     H1 3768   1.797   2.612   4.817  0.5087  1.2852 -0.8170
 1252TP3     H2 3769   1.798   2.742   4.895 -0.2723 -0.3436  2.0681
 1253TP3      O 3770   1.063   2.975   4.675 -0.0812 -0.1643 -0.4202
 1253TP3     H1 3771   1.032   2.886   4.660 -0.1536 -0.1236 -0.5116
 1253TP3     H2 3772   1.144   2.964   4.725  0.3494 -0.3153 -1.1452
 1254TP3      O 3773   2.150   1.688   4.529 -0.4689 -0.2503 -0.1615
 1254TP3     H1 3774   2.148   1.625   4.600 -1.6099  0.4410  0.4414
 1254TP3     H2 3775   2.227   1.742   4.547 -0.2456 -0.6344  0.0496
 1255TP3      O 3776   0.592   3.302   5.173  0.1175  0.1176  0.1312
 1255TP3     H1 3777   0.579   3.338   5.261  4.7208  3.6503 -0.2380
 1255TP3     H2 3778   0.643   3.222   5.188  0.0229  0.1531  0.6783
 1256TP3      O 3779   0.894   2.056   5.128 -0.2303  0.1128  0.1801
 1256TP3     H1 3780   0.838   2.128   5.157  1.3580  0.9033  1.3889
 1256TP3     H2 3781   0.960   2.098   5.072  0.8311 -0.3278  1.0609
 1257TP3      O 3782   0.920   3.521   5.511 -0.1972  0.0495  0.5149
 1257TP3     H1 3783   1.011   3.500   5.490 -0.7557 -0.7780 -1.3267
 1257TP3     H2 3784   0.926   3.590   5.577  1.7490 -0.3711  0.8535
 1258TP3      O 3785   0.373   1.893   4.225 -0.2235 -0.0118 -0.9605
 1258TP3     H1 3786   0.424   1.869   4.302 -0.4828  1.6169 -0.2494
 1258TP3     H2 3787   0.390   1.822   4.162  2.6235  0.2621 -0.6362
 1259TP3      O 3788  -0.012   2.956   5.313 -0.1982 -0.5654  0.0825
 1259TP3     H1 3789   0.019   2.871   5.346  0.2987  0.4817  2.5184
 1259TP3     H2 3790   0.034   3.021   5.367 -0.7399  1.2643 -1.5651
 1260TP3      O 3791   1.872   2.916   5.428 -0.1653 -0.2089  0.2889
 1260TP3     H1 3792   1.845   2.830   5.458  0.0699 -0.3741  0.0379
 1260TP3     H2 3793   1.801   2.974   5.453  0.2660 -0.2333  1.6508
 1261TP3      O 3794   1.865   2.292   3.509  0.5586  0.0663  0.0901
 1261TP3     H1 3795   1.913   2.222   3.554  1.4891  1.5347  1.4857
 1261TP3     H2 3796   1.933   2.348   3.472 -0.1811  0.1581 -1.1825
 1262TP3      O 3797   1.549   3.748   4.071 -0.1064 -0.4621  0.4708
 1262TP3     H1 3798   1.463   3.734   4.110  0.3979 -3.0655  0.8495
 1262TP3     H2 3799   1.606   3.688   4.118  1.3665 -0.7807 -1.5861
 1263TP3      O 3800   1.521   3.414   5.109 -0.1366 -0.4919  0.5872
 1263TP3     H1 3801   1.525   3.506   5.082 -0.7086 -0.3037  1.1307
 1263TP3     H2 3802   1.611   3.383   5.100  0.5349  0.7205  2.4714
 1264TP3      O 3803   0.900   2.390   4.768  0.0594 -0.4582  0.3442
 1264TP3     H1 3804   0.941   2.476   4.779  2.3975 -1.3289 -0.8852
 1264TP3     H2 3805   0.933   2.338   4.841  1.7443 -1.3381 -0.9809
 1265TP3      O 3806   0.779   4.635   5.674  0.1996  0.1655 -0.2769
 1265TP3     H1 3807   0.794   4.718   5.718 -0.6502  0.0000  0.3439
 1265TP3     H2 3808   0.688   4.640   5.645 -0.1662 -0.9499  0.6446
 1266TP3      O 3809   2.261   2.611   4.682 -0.5918  0.2895 -0.5643
 1266TP3     H1 3810   2.232   2.672   4.750 -1.4400 -1.6088  0.8659
 1266TP3     H2 3811   2.221   2.644   4.601 -1.8141  1.0941  0.3419
 1267TP3      O 3812   0.640   3.405   4.282 -0.0037  0.1541  0.0915
 1267TP3     H1 3813   0.635   3.422   4.376 -0.8619  1.5881 -0.1724
 1267TP3     H2 3814   0.549   3.407   4.252  0.0484 -2.5557 -0.4445
 1268TP3      O 3815   5.795   3.369   5.204 -0.0095  0.2863 -0.3281
 1268TP3     H1 3816   5.735   3.443   5.192  0.2872  0.4544 -0.8067
 1268TP3     H2 3817   5.881   3.406   5.186  0.2550  0.0741  0.4578
 1269TP3      O 3818   1.319   2.927   4.812 -0.1665 -0.4453  0.2783
 1269TP3     H1 3819   1.377   2.960   4.743 -2.7002 -0.4586 -1.9963
 1269TP3     H2 3820   1.359   2.844   4.839  0.7796 -0.5304 -1.2923
 1270TP3      O 3821   0.071   3.430   5.193 -0.3739 -0.0181 -0.4807
 1270TP3     H1 3822   0.152   3.380   5.196  0.8545  1.8631 -0.9214
 1270TP3     H2 3823   0.084   3.492   5.121 -2.7100 -0.4976 -1.4039
 1271TP3      O 3824   1.197   2.880   3.389 -0.3061 -0.8337 -0.0639
 1271TP3     H1 3825   1.145   2.828   3.451 -0.6923 -0.3009  0.0591
 1271TP3     H2 3826   1.287   2.871   3.420  0.0120 -3.4234 -1.4085
 1272TP3      O 3827   1.980   4.166   5.274 -0.2190  0.4460  0.3080
 1272TP3     H1 3828   1.996   4.246   5.223  1.2942  0.2112  0.3638
 1272TP3     H2 3829   1.910   4.190   5.334  0.5553  1.9209  0.6782
 1273TP3      O 3830   1.968   2.049   4.734 -0.3700  0.1532 -0.3757
 1273TP3     H1 3831   1.960   2.015   4.645  3.6376 -0.0316 -0.8827
 1273TP3     H2 3832   1.998   1.974   4.786  2.2438  1.2569 -0.0988
 1274TP3      O 3833   5.670   2.275   4.660  0.6145 -0.0962 -0.4851
 1274TP3     H1 3834   5.757   2.314   4.667  0.2068  0.6217  5.1645
 1274TP3     H2 3835   5.687   2.182   4.648  2.2737 -0.0299  0.8977
 1275TP3      O 3836   0.560   3.019   3.555  0.3015 -0.1158 -0.3421
 1275TP3     H1 3837   0.507   2.950   3.515 -0.3384  0.7588 -1.0401
 1275TP3     H2 3838   0.650   2.988   3.545 -0.0497 -1.9349  1.4436
 1276TP3      O 3839   0.815   3.143   4.801 -0.1758 -0.1128 -0.6645
 1276TP3     H1 3840   0.882   3.079   4.776  0.9715  0.5687  0.5412
 1276TP3     H2 3841   0.840   3.222   4.753 -0.5344 -0.0448 -0.7427
 1277TP3      O 3842   1.490   2.917   3.470 -0.0070 -0.0529  0.3058
 1277TP3     H1 3843   1.521   2.994   3.517 -0.8290 -0.4513  1.5385
 1277TP3     H2 3844   1.544   2.914   3.391 -0.7183  2.4407 -0.3593
 1278TP3      O 3845   5.916   4.167   3.416  0.5100  1.4349 -0.1693
 1278TP3     H1 3846   5.894   4.258   3.437 -0.4449  1.0716  0.4196
 1278TP3     H2 3847   5.853   4.142   3.348 -1.9044 -0.0223  2.4253
 1279TP3      O 3848   0.464   3.493   5.595  0.0854 -0.0941 -0.4071
 1279TP3     H1 3849   0.375   3.525   5.577 -1.4572 -1.6517  3.3984
 1279TP3     H2 3850   0.507   3.567   5.637 -0.2725 -0.0768 -0.0620
 1280TP3      O 3851   1.377   3.802   4.714  0.2392 -0.4639  0.5920
 1280TP3     H1 3852   1.312   3.774   4.650 -0.7415  1.7911  0.5319
 1280TP3     H2 3853   1.344   3.769   4.797 -0.4885 -0.1610  0.4316
 1281TP3      O 3854   0.843   1.301   3.866  0.4128 -0.0395 -0.3795
 1281TP3     H1 3855   0.769   1.242   3.879 -0.0764  0.4557 -0.8514
 1281TP3     H2 3856   0.814   1.362   3.799  1.3678 -0.0214 -0.7981
 1282TP3      O 3857   1.869   1.254   5.030  0.1316 -0.1235  0.1684
 1282TP3     H1 3858   1.926   1.208   5.092  0.0019 -1.3206 -0.5553
 1282TP3     H2 3859   1.817   1.184   4.989  0.5915  0.5448 -1.6629
 1283TP3      O 3860   0.239   3.686   4.396 -0.0362  0.3885 -0.2922
 1283TP3     H1 3861   0.153   3.672   4.435 -0.1807  1.2170 -0.2898
 1283TP3     H2 3862   0.301   3.662   4.466 -0.2646  0.1032 -0.1855
 1284TP3      O 3863   2.392   1.514   5.326  0.3976  0.1482  0.1103
 1284TP3     H1 3864   2.409   1.470   5.409 -0.2257  1.8314  1.1740
 1284TP3     H2 3865   2.300   1.497   5.308 -0.7062  3.1608  2.0060
 1285TP3      O 3866   5.823   3.254   3.961  0.0049 -0.4053 -0.5115
 1285TP3     H1 3867   5.762   3.322   3.931  0.6370  0.5085  0.2234
 1285TP3     H2 3868   5.888   3.247   3.891  0.8915  0.9812  0.1379
 1286TP3      O 3869   0.513   2.523   0.083 -0.2484 -0.0028 -0.6264
 1286TP3     H1 3870   0.569   2.547   0.010  2.3969 -2.3540  0.4475
 1286TP3     H2 3871   0.565   2.545   0.161 -1.9023  0.0857  0.4939
 1287TP3      O 3872   0.786   2.307   5.189  0.0831 -0.0353  1.0504
 1287TP3     H1 3873   0.762   2.304   5.282  2.8027 -1.1179  1.8112
 1287TP3     H2 3874   0.829   2.392   5.179 -1.7813  0.8721  0.2724
 1288TP3      O 3875   0.197   1.810   3.631 -0.5773  0.6140  0.2979
 1288TP3     H1 3876   0.132   1.880   3.630 -1.7815 -0.4784 -0.7430
 1288TP3     H2 3877   0.177   1.757   3.554  0.7652 -0.4719  0.6511
 1289TP3      O 3878   2.506   2.747   5.031 -0.1748  0.2730  0.0300
 1289TP3     H1 3879   2.575   2.682   5.015  0.0092  0.1943  1.0759
 1289TP3     H2 3880   2.536   2.794   5.109 -1.2434  0.3269  0.4221
 1290TP3      O 3881   0.358   1.939   3.899 -0.4236 -0.6540 -0.2675
 1290TP3     H1 3882   0.447   1.906   3.885 -1.1083 -2.7124 -0.1196
 1290TP3     H2 3883   0.303   1.861   3.892 -2.3284  0.7273 -1.2705
 1291TP3      O 3884   1.235   3.692   4.076  0.5987  0.1387 -0.3383
 1291TP3     H1 3885   1.237   3.631   4.002 -0.9565  0.1251 -0.3908
 1291TP3     H2 3886   1.265   3.640   4.151 -0.3805 -0.6193 -0.4512
 1292TP3      O 3887   0.720   2.682   4.816  0.2108 -0.2580  0.3818
 1292TP3     H1 3888   0.653   2.625   4.853 -0.3213  0.8041  1.1261
 1292TP3     H2 3889   0.719   2.760   4.872 -0.8197  1.5589 -1.9558
 1293TP3      O 3890   1.361   4.242   4.796 -0.1303  1.4711 -0.3745
 1293TP3     H1 3891   1.358   4.203   4.884  0.9164  1.7021 -0.2212
 1293TP3     H2 3892   1.337   4.170   4.738  1.9552  0.4865 -0.1039
 1294TP3      O 3893   1.150   2.339   5.486 -0.6296  0.1101  0.2833
 1294TP3     H1 3894   1.231   2.316   5.439 -0.9858 -0.6843  0.0417
 1294TP3     H2 3895   1.122   2.421   5.445  1.8855  2.3969  2.6792
 1295TP3      O 3896   1.761   3.327   5.512 -0.0505 -0.1187  0.2623
 1295TP3     H1 3897   1.844   3.324   5.464 -1.3136  0.8558 -2.1355
 1295TP3     H2 3898   1.745   3.420   5.525 -0.1045 -0.3418  2.0433
 1296TP3      O 3899   0.210   3.566   5.552 -0.2513 -0.3094 -0.5213
 1296TP3     H1 3900   0.159   3.496   5.513 -0.1127 -1.1358  0.7369
 1296TP3     H2 3901   0.146   3.616   5.604  0.1378 -1.2422  0.9133
 1297TP3      O 3902   2.588   3.777   5.896  0.5260  0.3107 -0.2007
 1297TP3     H1 3903   2.623   3.693   5.866 -0.3289 -0.3609  0.5876
 1297TP3     H2 3904   2.569   3.825   5.816 -0.8687 -1.0666 -0.7567
 1298TP3      O 3905   1.276   2.435   4.398  0.2578 -0.0124 -0.1058
 1298TP3     H1 3906   1.340   2.472   4.458 -0.0723  0.2487  0.0934
 1298TP3     H2 3907   1.324   2.370   4.348  0.5662 -0.1582  0.3721
 1299TP3      O 3908   0.259   2.436   3.831  0.4683  0.1267 -1.1291
 1299TP3     H1 3909   0.198   2.474   3.769 -0.5992 -0.1113 -0.2537
 1299TP3     H2 3910   0.227   2.347   3.846  1.5316 -0.3110 -1.3033
 1300TP3      O 3911   1.884   1.846   4.533 -0.1830  0.1347 -0.3082
 1300TP3     H1 3912   1.968   1.805   4.515  0.4324  1.4180 -0.5072
 1300TP3     H2 3913   1.836   1.840   4.451 -0.9141 -1.9140  0.2029
 1301TP3      O 3914   1.322   4.178   5.065 -0.7600 -0.2209 -0.2756
 1301TP3     H1 3915   1.403   4.190   5.115 -0.4200  0.6333 -1.0073
 1301TP3     H2 3916   1.263   4.245   5.100 -1.5480 -1.5099  0.9898
 1302TP3      O 3917   0.502   2.758   4.232  0.2338 -0.0594  0.3039
 1302TP3     H1 3918   0.552   2.767   4.151  0.3306 -0.1457  0.3536
 1302TP3     H2 3919   0.457   2.674   4.223  0.9903 -0.5233  0.7438
 1303TP3      O 3920   1.445   3.050   5.726  0.3733  0.1204  0.0827
 1303TP3     H1 3921   1.416   3.132   5.767  0.5526 -0.1010  0.6665
 1303TP3     H2 3922   1.367   2.995   5.725  0.1700  0.4183 -0.6192
 1304TP3      O 3923   1.375   3.355   4.894  0.0820 -0.0605 -0.6227
 1304TP3     H1 3924   1.421   3.337   4.975 -0.4236 -0.8097 -0.4933
 1304TP3     H2 3925   1.286   3.323   4.909  0.0126 -0.3089 -1.5019
 1305TP3      O 3926   1.058   2.966   3.192  0.1338  0.7023 -0.3336
 1305TP3     H1 3927   1.127   2.996   3.133  0.5784 -0.6917 -0.5558
 1305TP3     H2 3928   1.104   2.917   3.260 -0.5095  1.0566  0.3734
 1306TP3      O 3929   2.123   3.644   3.775  0.1878  0.0761 -0.2883
 1306TP3     H1 3930   2.166   3.562   3.750  0.5351  0.2228 -0.1830
 1306TP3     H2 3931   2.091   3.681   3.692  0.5053  0.0981 -0.4030
 1307TP3      O 3932   0.661   2.908   4.959 -0.0732 -0.1155  0.3187
 1307TP3     H1 3933   0.704   2.988   4.926  2.2143 -0.4765  2.1715
 1307TP3     H2 3934   0.603   2.939   5.029 -1.4397  0.1553 -0.8731
 1308TP3      O 3935   5.654   3.057   3.807 -0.1667 -0.2086 -0.3063
 1308TP3     H1 3936   5.637   3.036   3.715  0.2646  0.4412 -0.5376
 1308TP3     H2 3937   5.701   3.140   3.805  1.5938 -1.1337  0.3966
 1309TP3      O 3938   0.203   3.654   0.209  0.4076  0.2372  0.2703
 1309TP3     H1 3939   0.110   3.662   0.187  0.9522  3.3182 -1.4029
 1309TP3     H2 3940   0.243   3.615   0.132  0.5531 -1.2914  1.0722
 1310TP3      O 3941   2.351   2.799   5.618 -0.3513  0.8582  0.1052
 1310TP3     H1 3942   2.269   2.751   5.630 -1.0912  2.1582  0.5713
 1310TP3     H2 3943   2.358   2.812   5.524 -0.1525 -0.1086 -0.0249
 1311TP3      O 3944   0.435   2.166   5.498  0.1452  0.5023  0.1218
 1311TP3     H1 3945   0.468   2.077   5.486 -0.4241  0.3202 -0.1704
 1311TP3     H2 3946   0.442   2.206   5.412 -0.0888  0.5632  0.1286
 1312TP3      O 3947   0.978   4.469   4.279 -0.1909 -0.4453  0.3062
 1312TP3     H1 3948   0.882   4.470   4.283 -0.1673 -0.3176  1.2497
 1312TP3     H2 3949   1.002   4.385   4.319  0.1151  0.0798  1.2576
 1313TP3      O 3950   0.820   2.258   5.589 -0.0219 -0.9706  0.1990
 1313TP3     H1 3951   0.861   2.188   5.538  1.3092 -0.8493  1.0663
 1313TP3     H2 3952   0.726   2.244   5.577  0.1740 -0.2316 -3.2552
 1314TP3      O 3953   0.661   4.168   4.509  0.0069  0.0092  0.1267
 1314TP3     H1 3954   0.604   4.119   4.450 -0.3562 -0.8316  1.1387
 1314TP3     H2 3955   0.734   4.108   4.526  1.1206  1.0011 -1.0120
 1315TP3      O 3956   1.349   1.567   4.047  0.1131 -0.0795  0.7440
 1315TP3     H1 3957   1.367   1.657   4.075  1.0460 -0.0511  0.1212
 1315TP3     H2 3958   1.268   1.543   4.092 -0.6853  1.4172  0.1844
 1316TP3      O 3959   1.514   2.336   5.103 -0.1634  0.0997 -0.2765
 1316TP3     H1 3960   1.547   2.422   5.131 -0.9192  0.2188  0.2952
 1316TP3     H2 3961   1.468   2.354   5.021  2.4262 -0.3211 -1.9115
 1317TP3      O 3962   5.614   3.599   4.043 -0.5104  0.0554 -0.4264
 1317TP3     H1 3963   5.577   3.518   4.008 -0.7444  0.6454 -1.6179
 1317TP3     H2 3964   5.639   3.578   4.133  0.6806 -1.7387 -1.1111
 1318TP3      O 3965   0.720   2.572   4.335  0.1177  0.1171 -0.0845
 1318TP3     H1 3966   0.659   2.639   4.305 -0.5137  0.3254  1.5747
 1318TP3     H2 3967   0.672   2.524   4.403  0.7049 -1.7543 -0.9071
 1319TP3      O 3968   0.867   2.440   3.659 -0.3698  0.2767  0.5030
 1319TP3     H1 3969   0.959   2.457   3.675 -0.5782  2.5782 -0.2874
 1319TP3     H2 3970   0.864   2.402   3.571 -0.2670  2.1810 -0.3682
 1320TP3      O 3971   1.019   2.370   4.338  0.7712 -0.5385 -0.2695
 1320TP3     H1 3972   1.112   2.394   4.342  1.2019 -2.1355  0.0283
 1320TP3     H2 3973   0.999   2.367   4.245  0.9524  0.0518 -0.3296
 1321TP3      O 3974   1.501   2.104   4.025 -0.2761 -0.0947 -0.3135
 1321TP3     H1 3975   1.592   2.075   4.018  0.2522  1.0606  1.0726
 1321TP3     H2 3976   1.456   2.061   3.953  1.1875 -1.3838 -0.5141
 1322TP3      O 3977   0.122   2.716   4.160  0.7519 -0.2350  0.2574
 1322TP3     H1 3978   0.208   2.685   4.133  0.4852 -0.4715 -0.3490
 1322TP3     H2 3979   0.063   2.686   4.090  0.1984  0.0157  0.6111
 1323TP3      O 3980   0.830   2.737   3.263 -0.4127  0.5779  0.1960
 1323TP3     H1 3981   0.902   2.685   3.229 -0.3478  0.6291  0.2554
 1323TP3     H2 3982   0.776   2.675   3.312 -0.1899  0.6173  0.4977
 1324TP3      O 3983   5.846   2.472   5.077  0.3578  0.0352 -0.3515
 1324TP3     H1 3984   5.768   2.433   5.116  0.7963 -0.0861  0.4225
 1324TP3     H2 3985   5.919   2.430   5.122  0.9022 -0.6214 -1.8049
 1325TP3      O 3986   3.081   3.302   5.983  0.1711 -0.4225 -0.4494
 1325TP3     H1 3987   3.083   3.324   5.890  2.0236  0.8079 -0.1702
 1325TP3     H2 3988   3.166   3.330   6.016 -0.8007  0.0310  1.8199
 1326TP3      O 3989   0.132   3.450   0.878 -0.4273  0.3543  0.7779
 1326TP3     H1 3990   0.149   3.374   0.822  0.3758  2.3582 -1.9409
 1326TP3     H2 3991   0.038   3.467   0.868 -0.4805  0.1129  0.8672
 1327TP3      O 3992   1.505   1.522   5.533 -0.6257 -0.6333  0.3564
 1327TP3     H1 3993   1.426   1.472   5.553 -1.3301  0.0414 -0.6160
 1327TP3     H2 3994   1.576   1.474   5.575 -1.4323 -1.8143  0.4024
 1328TP3      O 3995   2.540   4.152   0.090  0.2081 -0.1306  0.4401
 1328TP3     H1 3996   2.454   4.123   0.119  0.3617 -0.8187  0.2338
 1328TP3     H2 3997   2.547   4.242   0.121 -1.2347  0.5021 -0.9657
 1329TP3      O 3998   0.532   3.361   4.905 -0.0656  0.2505 -0.0318
 1329TP3     H1 3999   0.573   3.286   4.861 -3.4871 -2.4194  0.8994
 1329TP3     H2 4000   0.559   3.352   4.996 -0.3684  0.2661  0.0577
 1330TP3      O 4001   2.121   3.389   0.312 -0.0269  0.1474  0.1657
 1330TP3     H1 4002   2.107   3.481   0.289 -2.7182  0.1969  1.6973
 1330TP3     H2 4003   2.075   3.340   0.243 -1.8969  0.1140  1.3730
 1331TP3      O 4004   1.720   2.708   5.471  0.2503  0.0326  0.9181
 1331TP3     H1 4005   1.772   2.628   5.466  0.2894  0.1083 -0.2077
 1331TP3     H2 4006   1.635   2.680   5.503  0.4927 -0.3435  1.2398
 1332TP3      O 4007   2.540   2.174   5.700 -0.2181  1.0156  0.0640
 1332TP3     H1 4008   2.518   2.182   5.607 -0.1718  0.0303 -0.0434
 1332TP3     H2 4009   2.545   2.080   5.715  1.5276  1.1710  0.6569
 1333TP3      O 4010   0.016   2.577   0.145  0.4344  0.2568  0.2652
 1333TP3     H1 4011   0.058   2.622   0.072  2.8475 -2.3419 -0.1038
 1333TP3     H2 4012   0.085   2.524   0.184 -2.3161 -4.4051 -0.3784
 1334TP3      O 4013   0.308   2.270   5.751 -0.2074  0.1347 -0.6705
 1334TP3     H1 4014   0.348   2.225   5.676  0.1065  0.4353 -0.6874
 1334TP3     H2 4015   0.364   2.247   5.825 -1.4751 -1.5417 -0.1882
 1335TP3      O 4016   0.374   3.144   0.463  0.0664  0.4059  0.7966
 1335TP3     H1 4017   0.437   3.161   0.394 -0.0863  0.1633  0.5952
 1335TP3     H2 4018   0.426   3.138   0.543  0.4134 -0.7895  0.4884
 1336TP3      O 4019   2.396   3.665   5.528 -0.8396 -0.5029  0.2360
 1336TP3     H1 4020   2.373   3.691   5.439  0.3310 -2.3677 -0.6680
 1336TP3     H2 4021   2.322   3.696   5.581 -1.4201  0.9383 -1.2960
 1337TP3      O 4022   2.559   3.128   5.483 -0.3868  0.0754 -0.6517
 1337TP3     H1 4023   2.475   3.121   5.528 -0.4459 -0.4452 -0.8332
 1337TP3     H2 4024   2.615   3.178   5.542 -0.5268 -0.4199 -0.0994
 1338TP3      O 4025   0.120   2.976   5.711 -0.2295 -0.2900  0.0005
 1338TP3     H1 4026   0.034   2.974   5.670 -0.2874 -1.4739  0.1654
 1338TP3     H2 4027   0.180   2.940   5.645 -0.0659 -0.6568  0.3440
 1339TP3      O 4028   0.780   1.196   5.464 -0.4029 -0.0173  0.2164
 1339TP3     H1 4029   0.856   1.141   5.481 -0.4561  0.3258  1.7448
 1339TP3     H2 4030   0.728   1.190   5.544 -0.9473  1.3954 -0.0013
 1340TP3      O 4031   1.555   2.664   5.924 -0.4053 -0.1680  0.5756
 1340TP3     H1 4032   1.522   2.574   5.923  0.1324 -0.3607 -0.6576
 1340TP3     H2 4033   1.476   2.717   5.933 -0.7909 -0.7357  0.6261
 1341TP3      O 4034   0.690   0.968   0.351 -0.0045  0.0040 -0.8990
 1341TP3     H1 4035   0.606   0.970   0.395  1.4494  0.5358  2.0741
 1341TP3     H2 4036   0.685   1.038   0.285 -2.9228 -2.0882 -3.1697
 1342TP3      O 4037   1.386   2.108   4.641 -0.3584 -0.1005 -0.2547
 1342TP3     H1 4038   1.470   2.108   4.596  0.1047  0.7677  0.5656
 1342TP3     H2 4039   1.362   2.016   4.649  0.3923 -0.3364 -0.7174
 1343TP3      O 4040   1.844   2.652   5.879 -0.4437  0.0561  0.0702
 1343TP3     H1 4041   1.751   2.640   5.859 -0.4527 -1.0986  0.7077
 1343TP3     H2 4042   1.889   2.594   5.818 -0.0420  1.4568 -1.0130
 1344TP3      O 4043   0.137   2.915   4.849 -0.3105 -0.3561  0.5201
 1344TP3     H1 4044   0.060   2.955   4.889  0.5695  1.6944  0.2872
 1344TP3     H2 4045   0.106   2.832   4.814 -2.5725  0.6815 -0.1221
 1345TP3      O 4046   1.729   2.779   0.408 -0.3732  0.0724  0.4925
 1345TP3     H1 4047   1.792   2.837   0.452  1.1282 -0.5841 -0.6883
 1345TP3     H2 4048   1.741   2.797   0.315 -1.6544 -0.3860  0.2158
 1346TP3      O 4049   1.171   2.366   0.255  0.0300  0.0184  0.2151
 1346TP3     H1 4050   1.245   2.317   0.292 -1.3311 -1.8410  0.6532
 1346TP3     H2 4051   1.186   2.456   0.283  2.9929  0.0612 -1.1676
 1347TP3      O 4052   0.670   0.942   5.312 -0.1254 -0.1417 -0.0349
 1347TP3     H1 4053   0.631   1.013   5.364 -0.4481 -0.5740  0.3117
 1347TP3     H2 4054   0.663   0.865   5.367 -0.8114 -0.6884 -0.8661
 1348TP3      O 4055   1.307   3.576   5.983  0.4072 -0.5256  0.4787
 1348TP3     H1 4056   1.251   3.609   6.053 -0.9205 -0.9795 -0.3310
 1348TP3     H2 4057   1.249   3.519   5.931  0.5917  1.7976 -2.5261
 1349TP3      O 4058   1.329   1.302   5.918  0.1828  0.4473 -0.3269
 1349TP3     H1 4059   1.332   1.207   5.911 -1.1666  0.4932 -1.9770
 1349TP3     H2 4060   1.334   1.319   6.012  2.9057 -1.1105 -0.0910
 1350TP3      O 4061   0.198   1.855   0.927  0.0516  0.3237  0.6810
 1350TP3     H1 4062   0.290   1.857   0.954 -0.8524  1.5890  4.0766
 1350TP3     H2 4063   0.158   1.790   0.984 -1.0023 -1.3022 -1.7457
 1351TP3      O 4064   1.976   2.470   0.357  0.3643  0.4695  0.2650
 1351TP3     H1 4065   2.063   2.448   0.388  1.1065 -1.5990 -2.8112
 1351TP3     H2 4066   1.988   2.551   0.307  0.8659 -0.5381 -1.2992
 1352TP3      O 4067   1.478   3.122   5.207 -0.1960 -0.4214 -0.6104
 1352TP3     H1 4068   1.401   3.074   5.175 -1.3603 -0.1391  1.5812
 1352TP3     H2 4069   1.549   3.058   5.203 -0.3325 -0.5233 -3.2184
 1353TP3      O 4070   5.500   2.922   0.510  0.4315  0.6224  0.1527
 1353TP3     H1 4071   5.419   2.927   0.561 -0.0446  2.0756 -0.7004
 1353TP3     H2 4072   5.569   2.946   0.573  0.2690 -0.9356  0.9644
 1354TP3      O 4073   1.402   2.189   5.780 -0.2784  0.0315  0.0295
 1354TP3     H1 4074   1.319   2.142   5.767 -0.1844 -1.6034  3.7836
 1354TP3     H2 4075   1.465   2.119   5.799  1.0922  1.4342  0.8107
 1355TP3      O 4076   0.621   1.993   5.361 -0.0527  0.2546  0.0042
 1355TP3     H1 4077   0.708   1.996   5.400  0.6431 -1.4937 -1.2894
 1355TP3     H2 4078   0.612   1.903   5.328 -1.0951  1.2290 -2.6415
 1356TP3      O 4079   1.386   2.346   6.013  0.2654  0.1083 -0.5591
 1356TP3     H1 4080   1.310   2.296   6.042 -1.0991  1.6439 -1.3526
 1356TP3     H2 4081   1.409   2.309   5.928  0.2664 -0.1891 -0.4312
 1357TP3      O 4082   0.433   3.220   5.819  0.0313 -0.1070  0.6468
 1357TP3     H1 4083   0.351   3.214   5.771 -0.2136  3.9456  0.2124
 1357TP3     H2 4084   0.445   3.133   5.857 -2.5181 -1.9147 -2.2604
 1358TP3      O 4085   1.583   3.659   5.932 -0.1338 -0.3654 -0.1680
 1358TP3     H1 4086   1.512   3.598   5.952 -0.7101 -0.2911 -1.8343
 1358TP3     H2 4087   1.576   3.674   5.838  0.4986  1.6714  0.0606
 1359TP3      O 4088   1.094   2.649   0.420  0.7860 -0.1617  0.0357
 1359TP3     H1 4089   1.003   2.667   0.444  1.1551  0.5363  0.9836
 1359TP3     H2 4090   1.121   2.582   0.482  1.2741  0.5060  0.5567
 1360TP3      O 4091   1.255   3.435   5.617  0.1489  0.2932 -0.3837
 1360TP3     H1 4092   1.319   3.457   5.685  0.4083  1.5976 -1.0262
 1360TP3     H2 4093   1.301   3.372   5.561  0.7989  1.0672 -0.7234
 1361TP3      O 4094   0.765   2.172   0.537 -1.0605 -0.0200 -0.0288
 1361TP3     H1 4095   0.811   2.249   0.506 -1.8211  0.3029 -0.3953
 1361TP3     H2 4096   0.744   2.123   0.457 -0.7172 -0.5305  0.1891
 1362TP3      O 4097   0.237   2.929   5.466  0.0063  0.2900 -0.2293
 1362TP3     H1 4098   0.277   3.008   5.430  0.5620  0.1696  0.1097
 1362TP3     H2 4099   0.280   2.857   5.420 -1.9118  0.2010 -1.9934
 1363TP3      O 4100   5.904   2.362   5.872 -0.0737  0.7916  0.4894
 1363TP3     H1 4101   5.954   2.385   5.794 -1.0184 -0.5388 -0.5596
 1363TP3     H2 4102   5.931   2.426   5.938  2.0557  0.8757 -0.3893
 1364TP3      O 4103   5.680   1.941   5.808 -0.5933  0.2763 -0.1429
 1364TP3     H1 4104   5.775   1.955   5.810 -0.1281 -2.3049 -0.9168
 1364TP3     H2 4105   5.651   1.959   5.898  0.8571 -0.2145  0.4430
 1365TP3      O 4106   1.465   2.810   0.186  0.4152  0.2090  0.2361
 1365TP3     H1 4107   1.432   2.874   0.249  0.3285 -1.5034  2.0383
 1365TP3     H2 4108   1.554   2.839   0.167 -0.3401  2.0556 -0.7468
 1366TP3      O 4109   0.506   2.211   0.260 -0.0244  0.3819  0.0473
 1366TP3     H1 4110   0.543   2.255   0.337 -1.1123  1.1769  0.1386
 1366TP3     H2 4111   0.471   2.129   0.294  1.2585 -0.1926  0.0304
 1367TP3      O 4112   1.277   4.027   5.765  0.2297 -0.5237 -0.1260
 1367TP3     H1 4113   1.281   4.119   5.792 -0.3113 -0.6437  0.3609
 1367TP3     H2 4114   1.284   3.977   5.846  0.4497 -0.9166 -0.3821
 1368TP3      O 4115   0.636   2.405   5.384  0.6895  0.4459 -0.8786
 1368TP3     H1 4116   0.591   2.453   5.315 -0.2097  1.4477  0.3481
 1368TP3     H2 4117   0.686   2.473   5.431 -1.4882  0.4918  1.5871
 1369TP3      O 4118   1.759   0.902   5.569  0.2055  0.0260 -0.1595
 1369TP3     H1 4119   1.733   0.823   5.520  0.4604  1.0705 -2.0994
 1369TP3     H2 4120   1.716   0.893   5.654  2.1633 -3.3818  0.6885
 1370TP3      O 4121   5.600   1.685   5.735 -0.1633  0.1988  0.0560
 1370TP3     H1 4122   5.682   1.638   5.744 -0.3947 -0.0584  0.8837
 1370TP3     H2 4123   5.624   1.777   5.745 -0.1704  0.0329  1.7713
 1371TP3      O 4124   1.232   3.840   0.429  0.0152  0.2057 -0.4379
 1371TP3     H1 4125   1.242   3.751   0.460 -3.1068  0.3238  1.2022
 1371TP3     H2 4126   1.160   3.836   0.366  0.1497  1.5065 -0.7066
 1372TP3      O 4127   5.532   5.116   5.848 -0.3438  0.3401 -1.1086
 1372TP3     H1 4128   5.502   5.133   5.759  1.3248  2.4797 -1.3273
 1372TP3     H2 4129   5.457   5.139   5.903 -0.6665  1.1168 -1.8507
 1373TP3      O 4130   0.822   4.548   1.418 -0.0525  0.0865 -0.0230
 1373TP3     H1 4131   0.874   4.606   1.363 -0.9579 -0.2091 -1.2439
 1373TP3     H2 4132   0.791   4.604   1.490  1.3245  0.4232  0.3361
 1374TP3      O 4133   5.875   3.975   0.901 -0.0099 -0.2511  0.0265
 1374TP3     H1 4134   5.868   4.015   0.814 -1.2940 -0.6516 -0.0678
 1374TP3     H2 4135   5.843   3.886   0.889 -0.3609 -0.2617  0.9443
 1375TP3      O 4136   0.307   5.682   1.223  0.3399  0.3280 -0.0609
 1375TP3     H1 4137   0.328   5.761   1.173  0.9413 -0.7418 -1.5733
 1375TP3     H2 4138   0.226   5.704   1.270 -0.6677  1.1771 -2.0745
 1376TP3      O 4139   1.320   4.279   5.872  0.2641 -0.6111  0.2338
 1376TP3     H1 4140   1.311   4.331   5.951 -1.8415  0.2520 -0.5134
 1376TP3     H2 4141   1.408   4.298   5.840 -0.0000  1.5035  0.6827
 1377TP3      O 4142   0.728   3.186   0.913  0.3569 -0.3117  0.3071
 1377TP3     H1 4143   0.676   3.153   0.986 -1.0742  2.6530  0.8244
 1377TP3     H2 4144   0.775   3.110   0.880 -0.4978 -2.1712  3.0128
 1378TP3      O 4145   2.296   4.009   0.480  0.4176 -0.4709  0.4701
 1378TP3     H1 4146   2.368   3.947   0.486  0.0724 -0.8785  0.4355
 1378TP3     H2 4147   2.300   4.059   0.562 -0.0200 -1.3312  1.0311
 1379TP3      O 4148   0.393   4.807   0.405 -0.6905  0.7088  0.7516
 1379TP3     H1 4149   0.388   4.716   0.433  0.1659  0.6359  0.6784
 1379TP3     H2 4150   0.434   4.804   0.319 -1.6372  1.0837  0.2680
 1380TP3      O 4151   1.276   4.825   1.664  0.4540 -0.5867  0.6013
 1380TP3     H1 4152   1.241   4.876   1.737 -1.7342 -1.5354  0.2923
 1380TP3     H2 4153   1.268   4.882   1.588 -0.8526 -0.9153  0.4697
 1381TP3      O 4154   0.747   4.467   1.852  0.0211  0.1060 -0.1895
 1381TP3     H1 4155   0.670   4.519   1.878  0.5106  0.9308 -0.3528
 1381TP3     H2 4156   0.710   4.395   1.800 -0.5047  2.0267 -2.6996
 1382TP3      O 4157   0.497   4.935   1.294  0.2020 -0.1411  0.6693
 1382TP3     H1 4158   0.410   4.923   1.256  0.0091 -0.5483  1.2207
 1382TP3     H2 4159   0.547   4.859   1.262  0.9706  1.1189 -1.2892
 1383TP3      O 4160   5.061   4.546   0.258  0.2177  0.2487 -0.0033
 1383TP3     H1 4161   5.142   4.596   0.245  0.8510 -0.6523  0.3287
 1383TP3     H2 4162   5.088   4.473   0.314 -0.8094 -0.1267  0.0084
 1384TP3      O 4163   1.253   4.534   0.486  0.3517  0.7388 -0.5157
 1384TP3     H1 4164   1.239   4.481   0.407  2.6770 -0.5110 -0.1861
 1384TP3     H2 4165   1.165   4.555   0.516 -0.7218 -2.2731 -1.1476
 1385TP3      O 4166   0.865   4.144   1.212 -0.2747  0.3727  0.5782
 1385TP3     H1 4167   0.828   4.131   1.300 -0.4803  1.1717  0.6181
 1385TP3     H2 4168   0.887   4.056   1.182 -2.2612 -0.1603  0.5409
 1386TP3      O 4169   1.288   3.648   0.899  0.0229  0.2508  0.3147
 1386TP3     H1 4170   1.240   3.703   0.837  0.2630 -0.6774 -0.7197
 1386TP3     H2 4171   1.377   3.644   0.864  0.7684  1.5270  1.9328
 1387TP3      O 4172   5.932   5.563   5.643  0.1467 -0.2337 -0.5876
 1387TP3     H1 4173   5.855   5.506   5.645 -0.0858  0.0919  0.1703
 1387TP3     H2 4174   5.908   5.633   5.583 -0.0586 -0.2687 -0.5474
 1388TP3      O 4175   2.112   5.300   2.184  0.3928  0.7519  0.5739
 1388TP3     H1 4176   2.119   5.351   2.265 -0.5857 -1.9239  2.4736
 1388TP3     H2 4177   2.195   5.252   2.178  0.4410  0.8929 -0.0175
 1389TP3      O 4178   0.197   5.506   0.538  0.6238 -0.4764 -0.5373
 1389TP3     H1 4179   0.163   5.578   0.485 -2.8618 -0.2469  1.6664
 1389TP3     H2 4180   0.121   5.450   0.554  2.1982 -2.1989  1.5861
 1390TP3      O 4181   0.389   5.838   0.659 -0.0567  0.3273 -0.5251
 1390TP3     H1 4182   0.424   5.923   0.687  0.5019 -0.3792  1.0015
 1390TP3     H2 4183   0.432   5.822   0.574  1.9458  0.3618  0.4164
 1391TP3      O 4184   0.095   5.519   1.496 -0.6386  0.6978  0.4264
 1391TP3     H1 4185   0.182   5.536   1.533 -1.2521  0.9298  1.8218
 1391TP3     H2 4186   0.062   5.445   1.547  0.2593 -2.1320 -2.6977
 1392TP3      O 4187   0.689   3.640   5.749  0.1888 -0.1299  0.4445
 1392TP3     H1 4188   0.676   3.635   5.843  3.0443 -1.4282  0.8920
 1392TP3     H2 4189   0.773   3.684   5.738 -0.6450  1.1031 -1.5977
 1393TP3      O 4190   1.304   4.736   2.045 -0.5218  0.1480  0.2159
 1393TP3     H1 4191   1.270   4.810   1.994  0.4060  0.7593  0.4593
 1393TP3     H2 4192   1.371   4.698   1.990  0.3901  0.7249  0.8920
 1394TP3      O 4193   0.590   4.560   0.556 -0.1510  0.0454 -0.0602
 1394TP3     H1 4194   0.616   4.493   0.619  0.9460  1.3029  0.8917
 1394TP3     H2 4195   0.505   4.531   0.524 -1.4125 -0.0332  2.9698
 1395TP3      O 4196   2.146   4.777   5.988  0.6421  0.1193 -0.2226
 1395TP3     H1 4197   2.140   4.831   5.910 -0.2814 -0.3336 -0.4718
 1395TP3     H2 4198   2.237   4.747   5.989  0.1269 -1.7307 -2.3930
 1396TP3      O 4199   5.664   5.170   5.179 -0.0864 -0.6021 -0.4374
 1396TP3     H1 4200   5.580   5.133   5.206 -0.0689 -2.3473 -2.4558
 1396TP3     H2 4201   5.649   5.199   5.089  0.9553  0.9595 -0.1404
 1397TP3      O 4202   1.372   4.053   0.387 -0.3317  0.9346 -0.0288
 1397TP3     H1 4203   1.335   3.967   0.405  0.3308  0.3290 -1.4161
 1397TP3     H2 4204   1.341   4.108   0.460 -1.1466 -0.3418  0.6313
 1398TP3      O 4205   5.700   4.738   1.094  0.2506  0.0005  0.0398
 1398TP3     H1 4206   5.738   4.698   1.017 -0.2675 -3.5052  1.4153
 1398TP3     H2 4207   5.607   4.718   1.089 -0.0754  1.1703  0.7843
 1399TP3      O 4208   5.253   4.612   1.192 -0.5122 -0.0391 -0.2353
 1399TP3     H1 4209   5.177   4.563   1.222 -1.5306  0.9394 -1.1092
 1399TP3     H2 4210   5.232   4.703   1.214 -0.2456  0.4171 -1.7653
 1400TP3      O 4211   0.732   4.102   5.565 -0.2741  0.2343  0.3178
 1400TP3     H1 4212   0.771   4.185   5.537  3.1465 -1.4687 -0.4975
 1400TP3     H2 4213   0.673   4.078   5.492  0.5151  0.8375 -0.5445
 1401TP3      O 4214   0.682   5.147   1.265  0.2701  0.4850  0.0283
 1401TP3     H1 4215   0.600   5.195   1.280 -1.8417 -1.9916 -2.4508
 1401TP3     H2 4216   0.657   5.055   1.271  3.2986 -0.4024  0.7738
 1402TP3      O 4217   0.894   4.154   5.778  0.6510 -0.1717  0.6170
 1402TP3     H1 4218   0.854   4.112   5.701 -0.3071  1.4793  0.1692
 1402TP3     H2 4219   0.977   4.108   5.789  0.4052 -1.0564 -0.8577
 1403TP3      O 4220   0.775   5.964   1.168 -0.0043  0.3653 -0.5874
 1403TP3     H1 4221   0.826   6.027   1.219 -1.5618  1.1749  0.0480
 1403TP3     H2 4222   0.696   5.950   1.219 -0.4389 -0.8398 -1.5388
 1404TP3      O 4223   0.835   5.429   5.541  0.2244  0.3744 -0.5350
 1404TP3     H1 4224   0.868   5.390   5.622 -1.1455  1.9415  0.8678
 1404TP3     H2 4225   0.772   5.365   5.508 -1.9341  1.1730  1.6854
 1405TP3      O 4226   1.111   5.055   2.106  0.5360 -0.2926  0.0328
 1405TP3     H1 4227   1.110   5.145   2.137  2.0371 -0.6712  1.2912
 1405TP3     H2 4228   1.061   5.006   2.171 -1.5809 -0.2076 -1.4175
 1406TP3      O 4229   0.081   3.203   1.786 -0.3841 -0.1344 -0.3259
 1406TP3     H1 4230   0.120   3.285   1.755 -1.4494  0.3350 -0.4799
 1406TP3     H2 4231   0.154   3.141   1.788  0.2349  0.5376 -1.2090
 1407TP3      O 4232   1.831   4.975   1.504 -0.2031  0.1414 -0.2245
 1407TP3     H1 4233   1.846   5.001   1.413  0.5202 -1.9211 -0.7474
 1407TP3     H2 4234   1.853   4.882   1.506 -1.7237 -0.2411  1.7199
 1408TP3      O 4235   0.541   5.143   0.921 -0.2706  0.2195  0.0575
 1408TP3     H1 4236   0.510   5.223   0.964 -0.2107  0.4358 -0.3026
 1408TP3     H2 4237   0.625   5.124   0.963 -1.1965 -0.8055  1.6046
 1409TP3      O 4238   0.790   4.139   0.275 -0.1920 -0.0526 -0.4180
 1409TP3     H1 4239   0.706   4.095   0.292 -0.1689  0.2653  0.5347
 1409TP3     H2 4240   0.847   4.110   0.346  0.4470 -0.0887 -0.9395
 1410TP3      O 4241   0.949   4.016   0.478 -0.1987 -0.9781 -0.8530
 1410TP3     H1 4242   0.958   3.999   0.572 -0.8389 -2.0638 -0.9695
 1410TP3     H2 4243   0.918   3.933   0.441  0.6090 -0.7468 -2.1189
 1411TP3      O 4244   2.173   5.210   1.269  0.2954  0.3624 -0.3965
 1411TP3     H1 4245   2.119   5.288   1.261  0.6667  0.5176 -1.5207
 1411TP3     H2 4246   2.148   5.173   1.354 -0.0909  1.5315  0.0257
 1412TP3      O 4247   0.851   3.347   1.352  0.0012 -0.4919 -0.4759
 1412TP3     H1 4248   0.946   3.340   1.341 -0.0856 -0.6243 -1.1660
 1412TP3     H2 4249   0.823   3.261   1.382 -0.1558 -1.0728 -2.2166
 1413TP3      O 4250   1.105   4.597   2.191  1.0182  0.0927  0.0220
 1413TP3     H1 4251   1.154   4.567   2.267  1.2459 -2.5712 -1.0749
 1413TP3     H2 4252   1.172   4.634   2.133  1.0384  0.7956  0.4794
 1414TP3      O 4253   2.074   3.777   1.351 -0.3895 -0.1141  0.2634
 1414TP3     H1 4254   2.105   3.849   1.296  2.6864 -0.9927  0.6294
 1414TP3     H2 4255   2.023   3.721   1.292 -1.6906  1.6159 -0.3325
 1415TP3      O 4256   0.195   4.281   5.970  0.0195  0.0224 -0.1106
 1415TP3     H1 4257   0.268   4.342   5.979  0.9804 -0.9459 -1.0594
 1415TP3     H2 4258   0.179   4.275   5.876 -0.2323 -0.9688 -0.0177
 1416TP3      O 4259   1.092   4.811   0.828  0.5734 -0.0590 -0.3894
 1416TP3     H1 4260   1.044   4.885   0.864 -0.6097 -0.5945 -0.8052
 1416TP3     H2 4261   1.184   4.829   0.849  0.0807  0.3333  1.6268
 1417TP3      O 4262   0.673   4.773   0.911  0.8859 -0.0151  0.3452
 1417TP3     H1 4263   0.601   4.788   0.850 -0.6736  1.4717  2.4189
 1417TP3     H2 4264   0.717   4.696   0.877 -0.4273  0.2187 -2.1378
 1418TP3      O 4265   5.679   4.777   1.807  0.0435 -0.0307  0.6434
 1418TP3     H1 4266   5.745   4.836   1.842  1.4961 -0.8609 -0.5758
 1418TP3     H2 4267   5.676   4.705   1.870  1.8263 -0.9704 -0.2603
 1419TP3      O 4268   5.709   4.066   0.070 -0.4452  0.1607  0.8400
 1419TP3     H1 4269   5.799   4.062   0.104 -0.2227  0.4671  0.2913
 1419TP3     H2 4270   5.687   4.159   0.073 -0.0201  0.3382 -0.8783
 1420TP3      O 4271   1.822   4.086   2.099  0.7847 -0.0069 -0.1300
 1420TP3     H1 4272   1.818   3.991   2.105  0.6162  0.0400  0.5687
 1420TP3     H2 4273   1.908   4.104   2.061  0.3202 -0.4756 -1.4644
 1421TP3      O 4274   2.279   5.250   5.201  0.1381  0.0265 -0.0319
 1421TP3     H1 4275   2.315   5.201   5.128  0.3229  1.5795 -1.0232
 1421TP3     H2 4276   2.229   5.321   5.161  1.0781  1.5284  1.3036
 1422TP3      O 4277   1.391   3.714   1.582 -0.4560  0.1258 -0.2163
 1422TP3     H1 4278   1.374   3.685   1.493  1.1199  0.1103 -0.5444
 1422TP3     H2 4279   1.316   3.682   1.633 -0.2961 -1.7925 -1.1236
 1423TP3      O 4280   1.122   4.506   5.831 -0.1737  0.1505 -0.2623
 1423TP3     H1 4281   1.149   4.510   5.739 -0.2529 -0.4086 -0.3132
 1423TP3     H2 4282   1.156   4.422   5.862 -0.2119  0.3036  0.1997
 1424TP3      O 4283   0.032   5.242   1.510 -0.3734 -0.2312  0.2871
 1424TP3     H1 4284   0.089   5.235   1.433 -0.5866 -1.9044  0.2497
 1424TP3     H2 4285  -0.057   5.242   1.473 -0.4504  1.8166  0.3795
 1425TP3      O 4286   2.372   4.978   0.252 -0.3031  0.6417  0.6006
 1425TP3     H1 4287   2.453   4.955   0.298  0.5560 -2.0939 -1.9778
 1425TP3     H2 4288   2.389   5.066   0.217  1.2896  0.4131  0.7006
 1426TP3      O 4289   1.108   5.347   2.152  0.0121 -0.1911  0.1198
 1426TP3     H1 4290   1.150   5.426   2.186  2.4532 -0.6210 -1.6050
 1426TP3     H2 4291   1.078   5.373   2.064  1.3758 -1.2654 -0.7035
 1427TP3      O 4292   0.100   4.506   5.779 -0.6643 -0.3787  0.2236
 1427TP3     H1 4293   0.158   4.509   5.702  0.8530 -1.8697  1.2299
 1427TP3     H2 4294   0.016   4.476   5.744 -1.5231  3.4024 -1.5675
 1428TP3      O 4295   2.420   5.224   0.197 -0.3428  0.4120 -0.2739
 1428TP3     H1 4296   2.513   5.233   0.218 -0.1220 -0.4506 -0.8491
 1428TP3     H2 4297   2.402   5.297   0.138  0.0167  0.4755 -0.3100
 1429TP3      O 4298   0.647   4.115   1.788  0.1505 -0.5215  0.5285
 1429TP3     H1 4299   0.583   4.184   1.769  1.6698  0.9217  0.4186
 1429TP3     H2 4300   0.680   4.089   1.702  0.5130 -0.4485  0.6428
 1430TP3      O 4301   1.812   5.827   0.188 -0.3940 -0.2420 -0.5019
 1430TP3     H1 4302   1.857   5.787   0.262  2.0369 -0.7556 -2.1488
 1430TP3     H2 4303   1.871   5.895   0.156 -1.8801  0.7434 -1.3191
 1431TP3      O 4304   0.671   4.443   0.083 -0.5122 -0.4037  0.0296
 1431TP3     H1 4305   0.756   4.484   0.100  0.5123 -3.0462  1.8063
 1431TP3     H2 4306   0.678   4.410  -0.006 -0.5162  1.1916 -0.5974
 1432TP3      O 4307   1.804   4.623   0.212  0.4293  0.2496  0.1678
 1432TP3     H1 4308   1.812   4.663   0.125  1.2569  2.8139  1.3435
 1432TP3     H2 4309   1.894   4.600   0.235 -0.0623 -2.9939 -0.6822
 1433TP3      O 4310   5.646   5.196   0.459  0.3099 -0.1499  0.6257
 1433TP3     H1 4311   5.676   5.229   0.544 -0.2686  0.3407  0.6476
 1433TP3     H2 4312   5.659   5.101   0.464  0.5692 -0.0917  1.1404
 1434TP3      O 4313   2.527   2.982   0.857 -0.1638  0.0622  0.4515
 1434TP3     H1 4314   2.576   2.960   0.777  1.7074  1.4124  1.1552
 1434TP3     H2 4315   2.451   3.032   0.826 -1.3121 -2.2196 -0.6829
 1435TP3      O 4316   0.022   5.279   0.586 -0.6350 -0.1648  0.2157
 1435TP3     H1 4317   0.072   5.197   0.578  1.6031  1.0387  0.9285
 1435TP3     H2 4318  -0.061   5.260   0.542  0.4575 -2.2792 -1.1532
 1436TP3      O 4319   1.352   3.456   0.328  0.0784 -0.5542  0.2170
 1436TP3     H1 4320   1.325   3.413   0.247  0.4101 -1.3536  0.5272
 1436TP3     H2 4321   1.272   3.463   0.380  0.0278 -0.8061  0.1718
 1437TP3      O 4322   1.334   4.437   0.116 -0.3340 -0.4096  0.1407
 1437TP3     H1 4323   1.262   4.479   0.163 -1.1230 -0.0617 -1.3281
 1437TP3     H2 4324   1.409   4.493   0.132 -1.5198  2.1699 -2.4304
 1438TP3      O 4325   2.510   4.018   1.510 -0.5596 -0.3421  0.4351
 1438TP3     H1 4326   2.417   4.006   1.530 -0.7400 -3.0994 -1.4232
 1438TP3     H2 4327   2.528   3.954   1.441  2.1729  1.8264 -1.0678
 1439TP3      O 4328   0.867   4.323   5.396 -0.4167 -0.1875 -0.0758
 1439TP3     H1 4329   0.858   4.372   5.314 -0.2802  1.4543  0.8549
 1439TP3     H2 4330   0.895   4.236   5.368 -1.4105  0.0094 -1.8357
 1440TP3      O 4331   0.855   3.680   1.666 -0.1023  0.5169 -0.2933
 1440TP3     H1 4332   0.878   3.772   1.674  3.3281 -0.3103  0.9824
 1440TP3     H2 4333   0.830   3.654   1.755 -0.0528 -0.0114 -0.4293
 1441TP3      O 4334   0.667   4.813   0.602  0.0300 -0.5590  0.1648
 1441TP3     H1 4335   0.622   4.731   0.582  1.5191 -1.0830 -1.2678
 1441TP3     H2 4336   0.598   4.870   0.635 -1.8977 -1.0745 -2.5685
 1442TP3      O 4337   0.972   4.003   0.767 -0.1392 -0.1996  0.3783
 1442TP3     H1 4338   0.989   4.086   0.811 -2.2336  0.7396 -0.4367
 1442TP3     H2 4339   1.059   3.965   0.752  0.8662  1.7822  0.8610
 1443TP3      O 4340   0.068   5.006   0.552 -0.4233 -0.2461 -0.6537
 1443TP3     H1 4341   0.035   4.939   0.613  0.1805 -1.1667 -1.3065
 1443TP3     H2 4342   0.031   4.981   0.467  2.9678 -2.2582 -1.7763
 1444TP3      O 4343   1.151   4.265   1.431  0.8781  0.0533  0.6601
 1444TP3     H1 4344   1.116   4.340   1.383  2.0282 -0.9125 -1.8946
 1444TP3     H2 4345   1.187   4.302   1.511  0.4957  2.0584 -0.0492
 1445TP3      O 4346   1.529   4.601   1.182 -0.1026 -0.1009 -0.5463
 1445TP3     H1 4347   1.549   4.639   1.267  0.1943 -2.1073  0.3385
 1445TP3     H2 4348   1.476   4.524   1.201 -1.5121  0.3514 -2.3156
 1446TP3      O 4349   2.345   4.379   5.332  0.2838 -0.8488  0.1570
 1446TP3     H1 4350   2.329   4.447   5.397  2.3887 -0.0531 -0.0721
 1446TP3     H2 4351   2.336   4.424   5.248 -2.1064 -1.7967 -0.1708
 1447TP3      O 4352   0.549   3.433   5.940 -0.5917  0.0216 -0.3532
 1447TP3     H1 4353   0.471   3.487   5.935 -0.0028  0.7838 -2.5380
 1447TP3     H2 4354   0.539   3.369   5.869 -0.1924 -1.2690  0.7057
 1448TP3      O 4355   0.941   4.351   1.585 -0.1168  0.0076  0.0396
 1448TP3     H1 4356   0.905   4.422   1.533 -2.0502  0.5129  1.9510
 1448TP3     H2 4357   0.994   4.394   1.652  1.5847 -0.5917 -0.8410
 1449TP3      O 4358   0.797   0.355   0.989 -0.0034  0.1527  0.3988
 1449TP3     H1 4359   0.755   0.301   0.923 -0.9353  2.3246 -0.9048
 1449TP3     H2 4360   0.791   0.305   1.070 -2.4467 -0.8911 -0.3655
 1450TP3      O 4361   5.846   4.747   5.970 -0.4775 -0.1565  0.4182
 1450TP3     H1 4362   5.790   4.825   5.970  1.3627  1.2865 -1.3464
 1450TP3     H2 4363   5.811   4.692   5.900  0.8313  1.2565 -1.4490
 1451TP3      O 4364   0.601   5.039   2.121 -0.2706 -0.2209  0.1740
 1451TP3     H1 4365   0.633   5.126   2.146  1.1310 -1.5161  3.4242
 1451TP3     H2 4366   0.506   5.044   2.133 -0.2463  0.9248 -0.0184
 1452TP3      O 4367   0.581   3.827   0.036 -0.3401  0.1901  0.2498
 1452TP3     H1 4368   0.527   3.818   0.114 -0.4969 -1.0022  0.0205
 1452TP3     H2 4369   0.603   3.921   0.032  0.2020  0.1749  2.0738
 1453TP3      O 4370   0.044   4.145   1.612 -0.0524  0.5264 -0.1749
 1453TP3     H1 4371   0.132   4.181   1.599  0.5249 -0.5719  0.6000
 1453TP3     H2 4372   0.016   4.181   1.696  2.0148 -3.4844  2.5447
 1454TP3      O 4373   0.994   3.894   1.144 -0.3319  0.4844 -0.1580
 1454TP3     H1 4374   0.990   3.818   1.203  0.5738 -0.7933 -1.6602
 1454TP3     H2 4375   1.086   3.899   1.118  0.0604  3.3198  1.3539
 1455TP3      O 4376   0.737   4.058   0.009 -0.0891 -0.1443 -0.1147
 1455TP3     H1 4377   0.784   4.098  -0.064 -0.3107  2.1316  0.9107
 1455TP3     H2 4378   0.783   4.089   0.087  0.0644 -2.4177  0.7629
 1456TP3      O 4379   0.597   3.891   0.709 -0.4692  0.1523  0.3484
 1456TP3     H1 4380   0.561   3.917   0.624 -2.1252 -2.2111  0.2356
 1456TP3     H2 4381   0.657   3.819   0.689  0.2833  0.5603  1.0701
 1457TP3      O 4382   1.459   5.593   5.868 -0.0438  0.6397 -0.3389
 1457TP3     H1 4383   1.477   5.567   5.778 -0.2536  0.9383 -0.4691
 1457TP3     H2 4384   1.544   5.614   5.905  0.1848 -0.6027 -0.1096
 1458TP3      O 4385   0.961   4.236   0.925  0.4428  0.4934  0.7441
 1458TP3     H1 4386   1.016   4.252   1.002 -0.9275  0.0339  1.8477
 1458TP3     H2 4387   0.874   4.218   0.960 -0.4105  1.0642 -0.9622
 1459TP3      O 4388   1.634   5.224   5.772  0.1187  0.5302  0.0737
 1459TP3     H1 4389   1.727   5.219   5.794 -0.1750  0.5760  1.3915
 1459TP3     H2 4390   1.592   5.256   5.851 -0.9273  1.3514 -0.7778
 1460TP3      O 4391   4.859   5.664   0.183  0.1547 -0.0728 -0.1549
 1460TP3     H1 4392   4.787   5.645   0.243  0.5959 -0.2648  0.3251
 1460TP3     H2 4393   4.817   5.701   0.105 -0.5301 -0.9144 -0.1996
 1461TP3      O 4394   1.756   5.469   0.872 -0.2525  0.6275  0.7222
 1461TP3     H1 4395   1.674   5.481   0.824  0.6803  4.2230 -0.2690
 1461TP3     H2 4396   1.751   5.532   0.944  1.1722  0.0952  1.3217
 1462TP3      O 4397   0.785   3.813   0.409  0.0575 -0.2663 -0.1517
 1462TP3     H1 4398   0.692   3.825   0.391 -0.0227  0.8072  0.8717
 1462TP3     H2 4399   0.788   3.748   0.479 -0.0103  0.6615  0.7313
 1463TP3      O 4400   0.033   4.187   0.963 -0.6870 -0.6810 -0.0890
 1463TP3     H1 4401  -0.043   4.130   0.968 -0.4012 -1.0417  0.1798
 1463TP3     H2 4402   0.071   4.185   1.051 -0.9582  0.3225  0.0645
 1464TP3      O 4403   1.667   4.696   1.711  0.3669 -0.9135  0.3959
 1464TP3     H1 4404   1.646   4.780   1.751  1.7074  1.0467 -2.6568
 1464TP3     H2 4405   1.746   4.668   1.756  0.2104 -0.2623  1.0948
 1465TP3      O 4406   2.166   4.480   0.535 -0.3119  0.9703 -0.2985
 1465TP3     H1 4407   2.169   4.480   0.630 -1.3672 -0.4989 -0.2189
 1465TP3     H2 4408   2.072   4.475   0.515 -0.0432 -0.7486 -1.3476
 1466TP3      O 4409   1.940   5.685   1.602 -0.3880  0.1068  0.0271
 1466TP3     H1 4410   1.936   5.633   1.682 -1.6952  1.8948  1.1908
 1466TP3     H2 4411   1.888   5.763   1.621  0.6845  1.3989 -1.9851
 1467TP3      O 4412   1.547   5.067   1.237 -0.3138  0.4732 -0.0688
 1467TP3     H1 4413   1.488   5.001   1.276  0.7037  0.1718  1.0045
 1467TP3     H2 4414   1.491   5.114   1.175 -1.4877 -0.3319  0.3264
 1468TP3      O 4415   0.278   5.080   1.100  0.2176  0.4449  0.3881
 1468TP3     H1 4416   0.243   5.128   1.025  0.8434  0.3206  0.0108
 1468TP3     H2 4417   0.368   5.059   1.076  0.9863  1.8445  1.8198
 1469TP3      O 4418   1.303   3.992   1.549 -0.9968 -0.5800 -0.3712
 1469TP3     H1 4419   1.267   4.016   1.634 -0.9445 -2.9565  0.4111
 1469TP3     H2 4420   1.309   3.896   1.552  1.7524 -0.5789 -1.9255
 1470TP3      O 4421   1.731   5.103   2.133 -0.1636  0.0120 -0.1768
 1470TP3     H1 4422   1.777   5.175   2.089  0.2970  1.5827  2.6583
 1470TP3     H2 4423   1.776   5.025   2.102  0.2213  0.9841 -2.3167
 1471TP3      O 4424   0.586   5.428   5.859 -0.2292  0.4989 -1.0255
 1471TP3     H1 4425   0.598   5.481   5.937 -1.4151 -0.6918  0.0162
 1471TP3     H2 4426   0.673   5.421   5.821  0.3024  1.4018 -0.0092
 1472TP3      O 4427   0.511   4.679   1.568 -0.5525  0.2054  0.4268
 1472TP3     H1 4428   0.595   4.687   1.615 -0.9681  0.7949  1.0957
 1472TP3     H2 4429   0.512   4.591   1.532  0.3211  0.1707  0.5026
 1473TP3      O 4430   1.238   3.945   0.791  0.1040 -0.0903 -0.1738
 1473TP3     H1 4431   1.321   3.926   0.748  0.1270 -0.6898  0.1170
 1473TP3     H2 4432   1.241   3.894   0.872  0.4084  1.6474  0.9664
 1474TP3      O 4433   5.630   5.187   0.181  0.2805  0.8834 -0.6574
 1474TP3     H1 4434   5.659   5.265   0.133  0.3384  1.4517  0.2844
 1474TP3     H2 4435   5.633   5.212   0.273 -1.1064  0.2389 -0.4038
 1475TP3      O 4436   1.225   0.332   0.678 -0.2952 -0.2695  0.1026
 1475TP3     H1 4437   1.223   0.425   0.652  0.4064  0.0759  1.2011
 1475TP3     H2 4438   1.308   0.322   0.725 -0.5297 -1.3718  0.3136
 1476TP3      O 4439   0.265   4.233   1.497 -0.2209  1.1674  0.1439
 1476TP3     H1 4440   0.353   4.212   1.468 -0.0389  2.3777 -0.2442
 1476TP3     H2 4441   0.274   4.318   1.541 -1.1032  1.0513  0.5839
 1477TP3      O 4442   2.869   5.045   0.468  0.5375  0.6766 -0.6472
 1477TP3     H1 4443   2.871   5.069   0.560 -2.2846  0.0601 -0.3446
 1477TP3     H2 4444   2.904   5.121   0.422 -2.6272  3.1016  0.6485
 1478TP3      O 4445   0.426   5.507   1.393 -0.1898  0.6379 -0.3676
 1478TP3     H1 4446   0.402   5.556   1.314  2.8570  0.6645 -1.4170
 1478TP3     H2 4447   0.404   5.416   1.372  0.3861  0.6748 -1.2090
 1479TP3      O 4448   1.484   3.916   0.669  0.1937 -0.1470  0.1015
 1479TP3     H1 4449   1.545   3.867   0.613 -0.2155  0.3046 -0.7650
 1479TP3     H2 4450   1.518   4.005   0.669  0.8644 -0.3806  1.5746
 1480TP3      O 4451   0.488   4.502   0.844  0.3367  0.1663  0.0510
 1480TP3     H1 4452   0.440   4.451   0.910  0.2508  1.1085  0.7366
 1480TP3     H2 4453   0.563   4.447   0.820 -1.9197 -2.2111 -2.3862
 1481TP3      O 4454   0.521   4.362   1.708 -0.5365  0.4340 -0.2152
 1481TP3     H1 4455   0.535   4.405   1.624 -0.9423  0.1795 -0.4192
 1481TP3     H2 4456   0.426   4.366   1.721 -0.3181  2.5916  1.3712
 1482TP3      O 4457   2.507   4.961   1.872  0.0118  0.0623  0.0812
 1482TP3     H1 4458   2.586   5.015   1.865  1.0417 -1.5200 -1.2057
 1482TP3     H2 4459   2.479   4.972   1.963  1.2877  1.2407  0.3670
 1483TP3      O 4460   1.027   3.597   2.251 -0.2059 -1.1188 -0.2250
 1483TP3     H1 4461   0.941   3.630   2.224  0.8001  0.3556 -1.8059
 1483TP3     H2 4462   1.022   3.503   2.233 -1.4960 -1.0686 -0.2631
 1484TP3      O 4463   0.363   3.016   1.572  0.0344  0.6316 -0.1948
 1484TP3     H1 4464   0.411   3.098   1.561  1.3061 -0.2062 -1.1979
 1484TP3     H2 4465   0.421   2.961   1.624 -1.5023  0.8777  1.9019
 1485TP3      O 4466   0.930   4.548   0.078 -0.6992 -0.1372 -0.4108
 1485TP3     H1 4467   0.984   4.536   0.000  1.9131  0.5559  1.1554
 1485TP3     H2 4468   0.950   4.636   0.108 -1.4853 -0.4523  1.1672
 1486TP3      O 4469   1.066   5.031   1.003  0.4422 -0.1230 -0.7950
 1486TP3     H1 4470   1.056   5.017   1.097 -0.1375  1.0064 -0.6726
 1486TP3     H2 4471   1.087   5.124   0.994 -0.6661  0.0457 -1.8567
 1487TP3      O 4472   0.418   4.400   5.970 -0.1312  0.3623  0.1656
 1487TP3     H1 4473   0.385   4.490   5.968  1.3585  0.9451  0.1385
 1487TP3     H2 4474   0.503   4.407   6.014  0.2596 -0.9401 -0.3339
 1488TP3      O 4475   0.460   4.957   0.740  0.2371  0.0511 -0.3912
 1488TP3     H1 4476   0.480   5.008   0.818  0.3335  2.2280 -1.7417
 1488TP3     H2 4477   0.402   5.014   0.689 -0.7853 -1.7867 -1.3753
 1489TP3      O 4478   4.995   4.260   0.935 -0.8381 -0.1476  0.1109
 1489TP3     H1 4479   5.061   4.302   0.991 -1.6154  0.3575  0.6660
 1489TP3     H2 4480   5.030   4.172   0.919  1.1687  0.8943 -1.6754
 1490TP3      O 4481   0.696   4.666   0.275 -0.1363 -0.2337 -0.1850
 1490TP3     H1 4482   0.694   4.619   0.358 -0.3403  0.0587 -0.0235
 1490TP3     H2 4483   0.689   4.597   0.209 -0.0560 -0.4616  0.0412
 1491TP3      O 4484   1.891   4.816   2.124  0.6724 -0.3731  0.0734
 1491TP3     H1 4485   1.868   4.771   2.205  1.4525 -0.9743 -0.0225
 1491TP3     H2 4486   1.835   4.776   2.058  0.5460 -0.3966  0.1943
 1492TP3      O 4487   5.539   3.873   0.327 -0.2915 -0.0654 -0.3165
 1492TP3     H1 4488   5.524   3.798   0.269  1.3103  0.9063 -2.1012
 1492TP3     H2 4489   5.528   3.950   0.270 -2.4025  1.1394  1.5713
 1493TP3      O 4490   1.817   3.389   0.416  0.4205  0.1562  0.5053
 1493TP3     H1 4491   1.828   3.452   0.345 -2.8703  0.4880  0.1451
 1493TP3     H2 4492   1.841   3.305   0.377 -1.7136  0.2703 -1.2088
 1494TP3      O 4493   1.689   4.612   0.547  0.6267  0.0808  0.3340
 1494TP3     H1 4494   1.647   4.532   0.578  3.0514 -1.2047  0.5309
 1494TP3     H2 4495   1.640   4.635   0.468 -0.8306 -0.9509  0.8949
 1495TP3      O 4496   0.971   5.061   1.276 -0.3470 -0.1616  0.0972
 1495TP3     H1 4497   0.903   5.110   1.229 -1.0322 -1.0754  0.1114
 1495TP3     H2 4498   0.993   5.117   1.350 -0.1736  0.7110 -0.5992
 1496TP3      O 4499   2.075   5.485   1.454  0.5192 -0.4717 -0.0563
 1496TP3     H1 4500   2.029   5.555   1.501  3.0568 -0.8616  3.3299
 1496TP3     H2 4501   2.083   5.519   1.365 -0.2106  2.6015  0.9150
 1497TP3      O 4502   0.581   4.788   2.680  0.5063 -1.0640 -0.4182
 1497TP3     H1 4503   0.561   4.834   2.598 -1.5382 -2.1735 -0.5848
 1497TP3     H2 4504   0.642   4.847   2.725 -1.4160  1.5022 -0.9374
 1498TP3      O 4505   1.066   3.051   5.875 -0.1304  0.0329  0.4983
 1498TP3     H1 4506   0.978   3.082   5.893 -0.4821 -1.6869  2.1063
 1498TP3     H2 4507   1.059   3.004   5.792  0.0278  2.4943 -1.0050
 1499TP3      O 4508   1.026   3.910   5.958 -0.4295 -0.3124  0.2141
 1499TP3     H1 4509   0.943   3.928   6.001 -0.7613 -2.4169  0.5346
 1499TP3     H2 4510   1.092   3.942   6.020 -0.9556 -1.0312  1.1696
 1500TP3      O 4511   2.091   4.580   0.205 -0.3150  0.2233  0.7862
 1500TP3     H1 4512   2.121   4.600   0.116 -1.0770 -0.6496  0.3219
 1500TP3     H2 4513   2.157   4.521   0.240 -1.4448 -1.7499 -0.2565
 1501TP3      O 4514   0.059   4.751   1.903 -0.4926 -0.2721 -0.3760
 1501TP3     H1 4515  -0.004   4.821   1.921  1.1436  1.0333  0.6930
 1501TP3     H2 4516   0.084   4.764   1.811 -1.7725 -0.8259 -0.8172
 1502TP3      O 4517   5.197   3.778   1.492  0.1351  0.3693  0.2716
 1502TP3     H1 4518   5.110   3.817   1.503 -0.1818 -0.0192 -0.7158
 1502TP3     H2 4519   5.179   3.687   1.466  0.8090  0.5200 -0.7940
 1503TP3      O 4520   2.493   2.670   1.928  0.4736 -0.2995  0.0224
 1503TP3     H1 4521   2.487   2.691   2.022  0.8428  0.2323 -0.0637
 1503TP3     H2 4522   2.587   2.678   1.908  0.3763 -0.2421 -0.4266
 1504TP3      O 4523   1.714   3.517   1.411  0.3149  0.0769 -0.1320
 1504TP3     H1 4524   1.706   3.611   1.420 -2.0112 -0.1255  0.5337
 1504TP3     H2 4525   1.793   3.495   1.461 -0.0771  1.5010  1.2076
 1505TP3      O 4526   5.910   4.893   0.346  0.1435 -0.1244  0.2334
 1505TP3     H1 4527   5.936   4.801   0.350  0.6235  0.0453  1.6200
 1505TP3     H2 4528   5.824   4.894   0.388  0.9200  0.2877  1.9057
 1506TP3      O 4529   0.612   5.853   6.019 -0.2540  0.5519  0.0426
 1506TP3     H1 4530   0.609   5.838   5.924 -0.3714  0.5719  0.0431
 1506TP3     H2 4531   0.702   5.881   6.036 -1.0924  4.1989 -0.6296
 1507TP3      O 4532   0.807   5.834   0.349 -0.4101 -0.3152  0.1855
 1507TP3     H1 4533   0.813   5.894   0.275 -2.6338  0.5118  0.6019
 1507TP3     H2 4534   0.858   5.876   0.418  0.1616 -0.1929 -0.2964
 1508TP3      O 4535   1.311   4.199   0.669 -0.0593  0.2092  0.2177
 1508TP3     H1 4536   1.304   4.105   0.686  2.6278 -0.1964 -0.3913
 1508TP3     H2 4537   1.308   4.239   0.756  1.9457 -0.7957  0.8272
 1509TP3      O 4538   4.857   4.544   0.547 -0.1457  0.3686  0.3665
 1509TP3     H1 4539   4.830   4.625   0.505  1.1955 -0.1839 -1.6904
 1509TP3     H2 4540   4.952   4.550   0.553 -0.1459 -0.4338  1.5845
 1510TP3      O 4541   5.906   3.963   2.092 -0.4513  0.1973 -0.4618
 1510TP3     H1 4542   5.863   3.878   2.099 -0.3211  0.2122  1.0241
 1510TP3     H2 4543   6.000   3.943   2.091 -0.4263  0.3063 -0.3758
 1511TP3      O 4544   1.579   3.644   1.790 -0.2504 -0.1614 -0.4449
 1511TP3     H1 4545   1.560   3.680   1.703  1.3698  0.5797 -0.5292
 1511TP3     H2 4546   1.663   3.599   1.779  0.3859  0.6395  0.9229
 1512TP3      O 4547   0.952   3.762   5.713 -0.4461 -0.2743 -0.3595
 1512TP3     H1 4548   0.967   3.825   5.783 -0.4800  0.9679 -1.4255
 1512TP3     H2 4549   0.951   3.815   5.633  1.2833 -1.8384 -1.4918
 1513TP3      O 4550   1.884   4.657   1.387 -0.4381  0.5300  0.1346
 1513TP3     H1 4551   1.945   4.729   1.403  0.0030 -0.0865  1.3810
 1513TP3     H2 4552   1.908   4.624   1.301  1.0076  0.3065  0.5946
 1514TP3      O 4553   0.350   5.625   2.462 -0.3169  1.6149  0.0900
 1514TP3     H1 4554   0.328   5.546   2.414  2.4917  1.1112 -0.5430
 1514TP3     H2 4555   0.360   5.692   2.395  0.8063  1.6120  0.2370
 1515TP3      O 4556   1.335   5.177   1.034  0.6182  0.5743 -0.1877
 1515TP3     H1 4557   1.290   5.133   0.962 -0.3332  2.2647 -0.6634
 1515TP3     H2 4558   1.415   5.212   0.995 -0.7920  3.1352 -0.9728
 1516TP3      O 4559   0.814   6.020   1.758 -0.3366 -0.4552  0.3756
 1516TP3     H1 4560   0.886   5.961   1.779  0.2076 -0.3029 -0.9578
 1516TP3     H2 4561   0.765   5.974   1.689 -1.1326 -0.2595  0.7926
 1517TP3      O 4562   0.064   3.894   5.895  0.0736  0.5320 -0.2629
 1517TP3     H1 4563   0.055   3.974   5.948  0.6558 -0.8364  2.0417
 1517TP3     H2 4564   0.158   3.883   5.885 -0.0125  0.2628 -0.7924
 1518TP3      O 4565   5.734   4.375   1.740 -0.2806 -0.0430  0.2241
 1518TP3     H1 4566   5.771   4.314   1.677 -1.4844 -1.2764  0.6713
 1518TP3     H2 4567   5.719   4.455   1.690  1.0600 -0.1695 -0.4364
 1519TP3      O 4568   0.173   0.398   1.294 -0.3295  0.5790  0.2422
 1519TP3     H1 4569   0.219   0.384   1.211 -0.1670  1.3800  0.1928
 1519TP3     H2 4570   0.235   0.367   1.361  0.6551  2.4045  0.2311
 1520TP3      O 4571   0.936   4.771   1.278  0.1454 -0.0544 -0.0126
 1520TP3     H1 4572   0.918   4.861   1.304  1.5319  0.0813  0.5509
 1520TP3     H2 4573   1.032   4.763   1.281  0.0996 -1.3236 -0.8035
 1521TP3      O 4574   1.225   5.618   1.561 -0.1148  0.1027 -0.0572
 1521TP3     H1 4575   1.270   5.655   1.485  2.6962 -2.0881  0.3606
 1521TP3     H2 4576   1.180   5.541   1.527 -1.1896  0.6655  0.0537
 1522TP3      O 4577   0.866   5.240   1.495  0.3592 -0.1433  0.0941
 1522TP3     H1 4578   0.837   5.237   1.586  0.5705  1.7825  0.2765
 1522TP3     H2 4579   0.786   5.229   1.444 -0.1837  1.2974  0.5723
 1523TP3      O 4580   5.815   4.120   0.410 -0.0495 -0.2371  0.2216
 1523TP3     H1 4581   5.796   4.065   0.486 -0.0272 -0.3313  0.1581
 1523TP3     H2 4582   5.742   4.105   0.351 -0.6358  0.6683  0.6888
 1524TP3      O 4583   1.837   0.119   1.275  0.0104 -0.0645  0.0247
 1524TP3     H1 4584   1.919   0.155   1.309 -1.1572 -0.1862  3.2664
 1524TP3     H2 4585   1.771   0.184   1.299 -0.9102  0.1719 -2.7806
 1525TP3      O 4586   1.117   3.340   5.894  0.2233 -0.0135  0.3351
 1525TP3     H1 4587   1.105   3.249   5.865 -1.9879  0.3371 -0.0045
 1525TP3     H2 4588   1.070   3.392   5.830  0.7354  1.3319  1.0087
 1526TP3      O 4589   2.203   3.729   5.674 -0.3527  0.1216  0.4747
 1526TP3     H1 4590   2.218   3.759   5.764  0.2328 -0.3921  0.5468
 1526TP3     H2 4591   2.128   3.669   5.681 -0.6695  0.5154  0.5274
 1527TP3      O 4592   0.288   5.665   1.668  0.3008  0.1250 -0.4429
 1527TP3     H1 4593   0.362   5.678   1.609 -0.0305  1.5147 -0.5903
 1527TP3     H2 4594   0.323   5.615   1.741  0.6896 -1.8212 -1.8562
 1528TP3      O 4595   0.296   4.661   0.731  0.0196  0.3586 -0.3434
 1528TP3     H1 4596   0.303   4.746   0.774 -1.9550  0.0600  0.6618
 1528TP3     H2 4597   0.366   4.609   0.770  0.4075  1.1162 -0.0050
 1529TP3      O 4598   0.165   4.993   5.924 -0.4148 -0.6088 -0.0204
 1529TP3     H1 4599   0.254   5.014   5.953 -0.2763 -1.0048 -0.1479
 1529TP3     H2 4600   0.134   4.928   5.987 -0.8660  0.0087  0.4167
 1530TP3      O 4601   0.654   4.728   1.173  0.0680 -0.6062 -1.0845
 1530TP3     H1 4602   0.741   4.698   1.200  0.2931  2.8179  3.0161
 1530TP3     H2 4603   0.666   4.756   1.082  4.1671  2.1848  0.0221
 1531TP3      O 4604   5.362   4.938   0.389 -0.1065  0.7491 -0.1980
 1531TP3     H1 4605   5.286   4.880   0.387 -0.5939  1.3763 -0.4568
 1531TP3     H2 4606   5.406   4.924   0.305 -0.2591  0.8018 -0.2869
 1532TP3      O 4607   1.770   4.850   0.938 -0.2787 -0.5209  0.4143
 1532TP3     H1 4608   1.836   4.813   0.878  0.5829 -1.1003  1.6758
 1532TP3     H2 4609   1.687   4.818   0.904 -0.2240  1.9909 -2.5344
 1533TP3      O 4610   1.254   3.462   1.106 -0.0566  0.4570  0.0158
 1533TP3     H1 4611   1.159   3.453   1.115 -0.1883 -1.5955 -2.4923
 1533TP3     H2 4612   1.265   3.525   1.035  0.4666  0.3746  0.0229
 1534TP3      O 4613   5.491   3.873   0.701  0.6067  0.1523 -0.4831
 1534TP3     H1 4614   5.494   3.796   0.759 -0.6189  0.7154  0.3745
 1534TP3     H2 4615   5.409   3.863   0.653  0.3651  0.9894 -0.2573
 1535TP3      O 4616   1.983   4.034   5.737  0.2528  0.6797  0.4103
 1535TP3     H1 4617   2.071   4.028   5.776 -0.0421  0.0287  1.0064
 1535TP3     H2 4618   1.999   4.032   5.643  0.8980  0.9162  0.5024
 1536TP3      O 4619   0.039   4.110   0.081 -0.6567  0.4274  0.0389
 1536TP3     H1 4620   0.101   4.177   0.049  0.5157 -1.6658 -2.4542
 1536TP3     H2 4621   0.072   4.087   0.168 -0.5195  2.3149  0.5482
 1537TP3      O 4622   1.499   4.400   0.560  0.2961 -0.4542 -0.3863
 1537TP3     H1 4623   1.421   4.446   0.529 -0.4820 -2.4064 -1.4806
 1537TP3     H2 4624   1.468   4.344   0.631  1.5693  1.8874  2.2184
 1538TP3      O 4625   1.178   5.248   0.436 -0.1288 -0.2418 -0.5273
 1538TP3     H1 4626   1.116   5.234   0.508  0.7412 -0.7343  0.1348
 1538TP3     H2 4627   1.166   5.172   0.379  1.2351 -1.3600  0.6188
 1539TP3      O 4628   1.396   4.880   1.376 -0.1276 -0.0525 -0.0786
 1539TP3     H1 4629   1.406   4.944   1.447 -0.6481 -0.5333  0.4400
 1539TP3     H2 4630   1.480   4.835   1.373  0.4503  1.0284 -0.8346
 1540TP3      O 4631   1.857   5.096   1.269  0.2551  0.1653 -0.3629
 1540TP3     H1 4632   1.764   5.090   1.245  0.1132  1.8116 -0.3333
 1540TP3     H2 4633   1.904   5.080   1.187 -0.0595 -0.2816 -0.4592
 1541TP3      O 4634   0.323   4.717   0.154 -0.5838 -0.5322  0.4165
 1541TP3     H1 4635   0.386   4.771   0.106 -1.2781 -1.4035 -1.5942
 1541TP3     H2 4636   0.244   4.771   0.159 -0.0162  0.2031  2.1277
 1542TP3      O 4637   1.619   3.148   0.208  0.0752  0.3520  0.0147
 1542TP3     H1 4638   1.702   3.159   0.253 -1.1108 -1.6980  2.9632
 1542TP3     H2 4639   1.642   3.110   0.123  2.1128 -1.9685  1.4809
 1543TP3      O 4640   0.764   5.013   1.019 -0.1769  0.0834  1.1871
 1543TP3     H1 4641   0.755   4.925   0.983  0.5734  0.4249  0.1423
 1543TP3     H2 4642   0.858   5.027   1.024 -0.3018  1.1398  0.5879
 1544TP3      O 4643   1.845   5.042   1.872 -0.4466 -0.5045 -0.0486
 1544TP3     H1 4644   1.826   5.067   1.782  0.5998 -1.2367 -0.4933
 1544TP3     H2 4645   1.941   5.042   1.877 -0.4266 -2.6594  0.4113
 1545TP3      O 4646   0.861   4.833   0.147 -0.4837  0.0402  0.1622
 1545TP3     H1 4647   0.826   4.768   0.208  0.2964 -0.8403 -0.3020
 1545TP3     H2 4648   0.892   4.904   0.202  1.3886 -1.2904  0.9217
 1546TP3      O 4649   5.842   4.487   1.960 -0.3348 -0.1249 -0.1292
 1546TP3     H1 4650   5.752   4.517   1.956  0.3872  2.1047 -2.3075
 1546TP3     H2 4651   5.857   4.446   1.875  0.5408 -1.1101  0.4710
 1547TP3      O 4652   0.352   3.627   1.736 -0.0094 -0.1617  0.5414
 1547TP3     H1 4653   0.388   3.662   1.817  0.2486 -0.8390  0.7242
 1547TP3     H2 4654   0.337   3.534   1.754  1.9284 -0.8054 -0.8008
 1548TP3      O 4655   0.376   4.759   5.402 -0.0590 -0.5721  0.5755
 1548TP3     H1 4656   0.303   4.712   5.443 -0.1714  0.8515  2.1578
 1548TP3     H2 4657   0.454   4.720   5.441 -0.1190 -0.1154  1.1794
 1549TP3      O 4658   1.453   5.120   2.106  0.1804 -0.1438 -0.1977
 1549TP3     H1 4659   1.429   5.032   2.134  0.1904 -0.4102 -0.9993
 1549TP3     H2 4660   1.548   5.124   2.117  0.0820  0.0744  0.6614
 1550TP3      O 4661   5.969   3.715   5.656 -0.7641  0.0749 -0.2988
 1550TP3     H1 4662   5.977   3.773   5.733 -0.7335  0.2570 -0.4376
 1550TP3     H2 4663   5.877   3.725   5.630 -1.0346 -0.7307  0.2936
 1551TP3      O 4664   1.540   4.700   0.294  0.2197  0.7872 -0.0026
 1551TP3     H1 4665   1.591   4.652   0.229 -0.0514 -0.2207  0.5061
 1551TP3     H2 4666   1.582   4.786   0.299  1.0024  0.4485 -0.5914
 1552TP3      O 4667   5.900   4.031   1.399 -0.0824 -0.2832  0.5319
 1552TP3     H1 4668   5.963   3.983   1.347 -1.2951 -0.3078 -0.9938
 1552TP3     H2 4669   5.951   4.069   1.471  1.6067 -0.4596 -0.5346
 1553TP3      O 4670   1.244   5.401   0.711 -0.2736 -0.0136 -0.1530
 1553TP3     H1 4671   1.223   5.326   0.766  3.3783  0.3961  2.1328
 1553TP3     H2 4672   1.168   5.459   0.720 -1.8348 -2.0307  0.5021
 1554TP3      O 4673   0.393   4.651   1.172 -0.1400  0.1572 -0.1121
 1554TP3     H1 4674   0.409   4.576   1.114 -1.4652  1.3866 -2.1995
 1554TP3     H2 4675   0.480   4.677   1.203  0.4521 -1.4727 -0.3010
 1555TP3      O 4676   0.775   4.716   1.644 -0.3468 -0.1759  0.7353
 1555TP3     H1 4677   0.847   4.697   1.704  0.0513 -0.3607  0.2117
 1555TP3     H2 4678   0.750   4.806   1.664 -0.3822 -0.3210  1.3443
 1556TP3      O 4679   0.802   5.266   0.472  0.6911 -0.3534 -0.4766
 1556TP3     H1 4680   0.722   5.213   0.480  0.2907  0.2494 -0.4577
 1556TP3     H2 4681   0.865   5.221   0.528 -0.5108  0.7998  2.0106
 1557TP3      O 4682   0.947   4.818   1.840 -0.0176  0.6789  0.0564
 1557TP3     H1 4683   0.900   4.818   1.924 -0.9446  0.1416 -0.4465
 1557TP3     H2 4684   1.010   4.890   1.847  1.4522 -0.6821  2.0693
 1558TP3      O 4685   1.931   4.193   0.846 -0.0037  0.4656  0.1772
 1558TP3     H1 4686   1.922   4.163   0.756 -3.7318  0.3779  0.4161
 1558TP3     H2 4687   1.928   4.289   0.840 -0.5818  0.4530  0.1975
 1559TP3      O 4688   1.657   4.157   0.739 -0.0412 -0.1319 -0.2268
 1559TP3     H1 4689   1.587   4.170   0.803 -0.7615  2.6154 -1.4187
 1559TP3     H2 4690   1.736   4.145   0.792 -0.9987 -0.6634  1.1321
 1560TP3      O 4691   1.004   4.378   1.152 -0.5397 -0.1661 -0.2612
 1560TP3     H1 4692   0.965   4.301   1.193 -0.6560 -0.9951 -1.8779
 1560TP3     H2 4693   0.929   4.435   1.133 -0.2953  1.4811  2.9841
 1561TP3      O 4694   2.089   5.558   1.175 -0.3173 -0.3504 -0.1812
 1561TP3     H1 4695   2.051   5.641   1.148  0.0957  0.1089  0.6266
 1561TP3     H2 4696   2.064   5.497   1.105  0.9726  0.8571 -1.7892
 1562TP3      O 4697   1.314   4.763   5.264  0.2692  0.8631  0.1993
 1562TP3     H1 4698   1.293   4.796   5.176 -0.5625 -0.2054 -0.0210
 1562TP3     H2 4699   1.399   4.720   5.254 -1.1540 -1.9170 -0.8447
 1563TP3      O 4700   0.968   5.282   0.910  0.3669  0.6819 -0.2114
 1563TP3     H1 4701   0.954   5.271   0.815  0.3750  0.2400 -0.1634
 1563TP3     H2 4702   0.977   5.376   0.921 -0.3087  0.8025 -0.5602
 1564TP3      O 4703   0.203   4.732   0.996  0.4023  0.3198 -0.3834
 1564TP3     H1 4704   0.132   4.711   1.057  0.0782  2.5850  0.1260
 1564TP3     H2 4705   0.283   4.712   1.044  0.1270  0.9823  0.3835
 1565TP3      O 4706   0.206   4.583   5.111  0.2304 -0.2889 -0.3403
 1565TP3     H1 4707   0.198   4.678   5.121  0.9068 -0.2176 -0.4288
 1565TP3     H2 4708   0.290   4.562   5.152 -0.4420 -1.0120  0.7095
 1566TP3      O 4709   2.334   5.659   0.747 -0.8273  0.0995  0.8651
 1566TP3     H1 4710   2.359   5.610   0.668 -1.0726  2.4388 -0.7709
 1566TP3     H2 4711   2.264   5.607   0.786 -2.3629 -0.0490 -1.8106
 1567TP3      O 4712   0.405   4.955   1.561  0.5033  0.0941  0.2675
 1567TP3     H1 4713   0.428   4.862   1.563 -0.1045 -0.1070 -1.2568
 1567TP3     H2 4714   0.440   4.986   1.478 -0.7777  0.8305 -0.0062
 1568TP3      O 4715   5.766   3.794   5.972  0.3334 -0.1797 -0.0402
 1568TP3     H1 4716   5.741   3.879   6.008 -0.0090  0.1581 -1.0167
 1568TP3     H2 4717   5.852   3.809   5.932 -1.2625  0.7848 -3.5059
 1569TP3      O 4718   0.409   3.688   1.154 -0.3566  0.0544 -0.1694
 1569TP3     H1 4719   0.380   3.744   1.226  0.5568  0.2927  0.0365
 1569TP3     H2 4720   0.353   3.611   1.159 -1.3485  0.7598 -0.1884
 1570TP3      O 4721   2.271   4.029   0.914 -0.5513 -0.4974 -0.1137
 1570TP3     H1 4722   2.291   3.944   0.875 -0.7707 -1.6387  2.1084
 1570TP3     H2 4723   2.242   4.083   0.841 -2.1990 -2.8865 -1.3464
 1571TP3      O 4724   0.885   3.405   0.765 -0.4447 -0.2565 -0.2121
 1571TP3     H1 4725   0.978   3.396   0.746 -0.3949 -0.5182  0.1303
 1571TP3     H2 4726   0.857   3.316   0.787 -0.2175  0.1689  2.1317
 1572TP3      O 4727   2.753   3.992   2.123 -0.0920 -0.1702  0.2325
 1572TP3     H1 4728   2.748   4.087   2.113 -2.0235 -0.2239  0.4125
 1572TP3     H2 4729   2.786   3.960   2.039 -1.4320  0.5163 -0.5677
 1573TP3      O 4730   5.880   4.379   1.474 -0.0981 -0.7332 -0.2259
 1573TP3     H1 4731   5.969   4.383   1.509 -0.4592  1.7869  0.5461
 1573TP3     H2 4732   5.867   4.462   1.429 -2.3451 -0.7060  0.3632
 1574TP3      O 4733   0.710   5.654   5.345  0.2915 -0.4833 -0.1869
 1574TP3     H1 4734   0.749   5.591   5.405 -0.1555  0.1164  0.7487
 1574TP3     H2 4735   0.620   5.664   5.376  0.5003  1.0026  0.0040
 1575TP3      O 4736   0.368   4.360   1.063  0.5724 -0.0151  0.0846
 1575TP3     H1 4737   0.279   4.349   1.097 -0.0118  1.0022 -1.0251
 1575TP3     H2 4738   0.393   4.273   1.031  0.0173 -0.3280  0.4933
 1576TP3      O 4739   1.207   4.000   0.139 -0.0740 -0.3298 -0.2977
 1576TP3     H1 4740   1.205   4.077   0.196  1.5732  0.9223 -1.7881
 1576TP3     H2 4741   1.300   3.986   0.122 -0.1345 -3.8530  1.3618
 1577TP3      O 4742   1.299   5.154   0.113  0.1679 -0.2289  0.1089
 1577TP3     H1 4743   1.219   5.205   0.120 -1.4053 -2.5863  0.3330
 1577TP3     H2 4744   1.271   5.069   0.079  2.7299 -0.8176 -0.7915
 1578TP3      O 4745   5.760   5.557   0.830  0.3553 -0.5089 -0.0187
 1578TP3     H1 4746   5.671   5.560   0.866  0.3844  0.2583  0.0037
 1578TP3     H2 4747   5.749   5.573   0.737  0.4883 -0.1759  0.0211
 1579TP3      O 4748   1.171   2.800   0.185 -0.1360  0.2922 -0.2423
 1579TP3     H1 4749   1.149   2.793   0.277  3.1771  0.2628  0.6612
 1579TP3     H2 4750   1.170   2.710   0.152  2.3029 -0.1876  0.8032
 1580TP3      O 4751   0.965   4.831   0.588  0.2202  0.4150  0.7820
 1580TP3     H1 4752   1.000   4.774   0.657  2.2961 -1.9043 -1.9334
 1580TP3     H2 4753   0.870   4.830   0.602  0.5852  0.5541  3.8709
 1581TP3      O 4754   0.685   3.433   0.170 -0.1405 -0.2980  0.0290
 1581TP3     H1 4755   0.649   3.421   0.082 -2.0776 -0.3265  0.7793
 1581TP3     H2 4756   0.721   3.522   0.170 -1.0524  0.0832 -0.5040
 1582TP3      O 4757   5.486   5.129   5.548 -0.2942  0.3442 -0.0396
 1582TP3     H1 4758   5.556   5.066   5.566 -0.3728  0.3650  0.3643
 1582TP3     H2 4759   5.467   5.118   5.455  1.5441  1.6608 -0.6462
 1583TP3      O 4760   1.110   5.361   1.464  0.1735 -0.3660 -0.2608
 1583TP3     H1 4761   1.035   5.302   1.478  0.8736 -1.2501 -0.1468
 1583TP3     H2 4762   1.150   5.330   1.383 -0.3038  0.9062 -1.0124
 1584TP3      O 4763   0.562   5.575   3.007  0.7189  0.6488 -0.5076
 1584TP3     H1 4764   0.509   5.569   3.086  3.8308  0.4912  1.7458
 1584TP3     H2 4765   0.513   5.633   2.949 -1.6048  0.9232  1.5871
 1585TP3      O 4766   0.760   4.026   2.494  0.0895  0.2107 -0.6262
 1585TP3     H1 4767   0.744   3.961   2.561 -1.0884  1.6346  0.5380
 1585TP3     H2 4768   0.844   4.001   2.456 -1.2633 -3.1935 -1.7356
 1586TP3      O 4769   1.200   4.086   1.984 -0.0248 -0.0359 -0.3170
 1586TP3     H1 4770   1.115   4.126   2.005  0.2123  0.0503  0.4838
 1586TP3     H2 4771   1.254   4.160   1.955  0.0829  0.0710  0.1420
 1587TP3      O 4772   5.665   5.295   2.775  0.5027  0.1173 -0.4203
 1587TP3     H1 4773   5.659   5.220   2.716  1.6110  1.2860 -2.1128
 1587TP3     H2 4774   5.647   5.259   2.862  0.1831 -1.9268 -1.2851
 1588TP3      O 4775   1.909   5.640   2.135 -0.3659 -0.3135 -0.1843
 1588TP3     H1 4776   1.863   5.556   2.128 -0.3787 -0.2982 -0.2870
 1588TP3     H2 4777   1.998   5.616   2.161 -0.0137 -0.4590 -1.4191
 1589TP3      O 4778   0.914   4.710   2.515  0.1676 -0.2000  0.0720
 1589TP3     H1 4779   0.926   4.616   2.527  1.4914  0.2460  3.4904
 1589TP3     H2 4780   0.924   4.747   2.603 -1.3077  3.0737 -0.9708
 1590TP3      O 4781   2.119   4.836   1.375 -0.8040  0.0549  0.2484
 1590TP3     H1 4782   2.161   4.753   1.399  0.1022  0.3343 -0.3290
 1590TP3     H2 4783   2.177   4.875   1.310 -2.0141  0.4167 -0.6688
 1591TP3      O 4784   0.601   4.466   3.307 -0.2090 -0.5836 -0.1161
 1591TP3     H1 4785   0.610   4.423   3.222 -1.1946 -2.0297  0.4709
 1591TP3     H2 4786   0.528   4.420   3.349 -0.4520  0.8279  1.0818
 1592TP3      O 4787   0.741   4.984   3.823  0.2201  0.0826 -0.6655
 1592TP3     H1 4788   0.674   4.919   3.802 -1.0597  1.0556  0.1960
 1592TP3     H2 4789   0.786   5.000   3.740 -0.2991 -0.9476 -1.1570
 1593TP3      O 4790   0.416   4.277   2.323  0.7564  0.4505 -0.0473
 1593TP3     H1 4791   0.509   4.298   2.309  0.8885 -0.0930  0.0039
 1593TP3     H2 4792   0.371   4.361   2.311  0.9769  0.3093 -2.5490
 1594TP3      O 4793   0.750   5.301   3.988  0.2605  0.3110 -0.4855
 1594TP3     H1 4794   0.713   5.346   4.064 -1.6302  1.8577 -2.2089
 1594TP3     H2 4795   0.697   5.222   3.979  0.1233  0.4060 -0.5147
 1595TP3      O 4796   5.649   5.063   2.629  0.8395  0.4178 -0.1986
 1595TP3     H1 4797   5.680   5.039   2.541 -1.7468  0.0313 -1.0786
 1595TP3     H2 4798   5.562   5.024   2.635  0.5985  1.1908  2.2292
 1596TP3      O 4799   1.609   4.484   3.556 -0.0644 -0.0060  0.1627
 1596TP3     H1 4800   1.614   4.419   3.486  1.6410 -0.1597  0.3798
 1596TP3     H2 4801   1.697   4.522   3.559 -0.9442  2.1360  0.2206
 1597TP3      O 4802   0.782   4.087   3.184 -0.1623  0.1177 -0.2411
 1597TP3     H1 4803   0.775   4.120   3.274  0.2585 -1.6884  0.4897
 1597TP3     H2 4804   0.692   4.060   3.162  0.0884 -1.3546  0.4360
 1598TP3      O 4805   2.284   4.049   2.274  0.4330 -0.6748 -0.1212
 1598TP3     H1 4806   2.282   4.134   2.230 -0.9204  0.6946  2.3741
 1598TP3     H2 4807   2.252   3.987   2.208 -1.0348  1.1706 -1.2527
 1599TP3      O 4808   5.274   5.307   1.953  0.3001  0.3881  0.1918
 1599TP3     H1 4809   5.327   5.368   1.900 -0.2982  0.8120  0.0760
 1599TP3     H2 4810   5.324   5.297   2.034  0.9668  0.1436 -0.2340
 1600TP3      O 4811   0.467   5.308   4.379  0.1532  0.0611 -0.3893
 1600TP3     H1 4812   0.432   5.393   4.407 -2.2103 -0.6489 -0.9717
 1600TP3     H2 4813   0.457   5.252   4.456  0.7294  0.0166 -0.3409
 1601TP3      O 4814   5.973   4.269   2.121 -0.5405 -0.4543 -0.0201
 1601TP3     H1 4815   5.960   4.184   2.161 -0.3319 -0.2050  0.5933
 1601TP3     H2 4816   6.050   4.305   2.165  0.3158 -0.5903 -1.3647
 1602TP3      O 4817   0.558   4.936   2.427 -0.2049 -0.3079  0.8257
 1602TP3     H1 4818   0.586   4.850   2.395 -0.0213  0.0993 -0.1193
 1602TP3     H2 4819   0.559   4.992   2.350 -2.4379  0.0398  1.0051
 1603TP3      O 4820   5.719   5.702   3.290 -0.0130 -0.0993  0.8128
 1603TP3     H1 4821   5.663   5.701   3.368 -0.9726 -1.5071  0.1458
 1603TP3     H2 4822   5.713   5.792   3.258  0.2337  0.4549  2.2269
 1604TP3      O 4823   0.900   5.347   2.342 -0.2379  0.3611  0.3465
 1604TP3     H1 4824   0.903   5.252   2.354 -0.7001 -0.1859 -3.0094
 1604TP3     H2 4825   0.969   5.366   2.279 -3.3947  1.3340 -3.2260
 1605TP3      O 4826   1.294   3.980   3.216  0.4422 -0.3298 -0.1452
 1605TP3     H1 4827   1.321   4.061   3.260  2.5616 -0.6469 -0.7579
 1605TP3     H2 4828   1.204   3.997   3.188  0.8274  1.8163 -0.2336
 1606TP3      O 4829   0.944   4.394   3.400  0.0907 -0.2787 -0.6342
 1606TP3     H1 4830   0.914   4.475   3.358  0.7803 -0.6282 -1.8182
 1606TP3     H2 4831   1.018   4.421   3.453 -0.7998  0.1692  0.4301
 1607TP3      O 4832   1.869   5.930   2.029  0.1214  0.3412 -0.0700
 1607TP3     H1 4833   1.863   5.904   2.120  0.1480 -0.0259 -0.1717
 1607TP3     H2 4834   1.790   5.894   1.988  0.3354  0.1082 -0.2863
 1608TP3      O 4835   0.155   5.419   2.353  0.0899  0.0046 -0.0958
 1608TP3     H1 4836   0.079   5.361   2.355 -0.6192  0.8617 -0.8153
 1608TP3     H2 4837   0.218   5.379   2.413 -1.0947 -0.5133  0.8546
 1609TP3      O 4838   2.241   4.216   2.506 -0.5354 -0.4334 -0.1458
 1609TP3     H1 4839   2.257   4.306   2.479  1.3297 -0.9621 -0.9451
 1609TP3     H2 4840   2.237   4.167   2.424 -0.3342 -1.2579  0.3263
 1610TP3      O 4841   1.968   5.014   2.749 -0.1999 -0.3634  0.2880
 1610TP3     H1 4842   1.946   5.101   2.716  0.4197 -0.3996 -0.2442
 1610TP3     H2 4843   2.052   5.026   2.795 -0.8924 -0.3764  1.6056
 1611TP3      O 4844   5.929   4.602   3.911  0.1237  0.1889  0.2484
 1611TP3     H1 4845   5.873   4.523   3.911 -0.4869  0.6111  0.2517
 1611TP3     H2 4846   6.009   4.574   3.867  0.4512 -0.7965  1.4065
 1612TP3      O 4847   0.201   4.750   2.242 -0.3278 -0.2600  0.6557
 1612TP3     H1 4848   0.261   4.822   2.263 -1.8592  1.3443 -0.1403
 1612TP3     H2 4849   0.196   4.751   2.146 -2.0886  0.0960  0.7129
 1613TP3      O 4850   2.001   4.619   2.574  0.1878 -0.4976 -0.5933
 1613TP3     H1 4851   2.079   4.598   2.624  1.8734  2.1809 -1.8390
 1613TP3     H2 4852   1.944   4.665   2.636  0.0806 -1.4634  0.0391
 1614TP3      O 4853   1.113   3.333   3.116 -0.6143 -0.2235  0.4097
 1614TP3     H1 4854   1.154   3.302   3.035 -0.2779 -0.9353  0.8375
 1614TP3     H2 4855   1.164   3.410   3.141 -0.3805 -0.3181  0.2272
 1615TP3      O 4856   0.131   4.263   3.262  0.8336  0.2813  0.4111
 1615TP3     H1 4857   0.106   4.202   3.332 -1.5341  2.5280  1.7046
 1615TP3     H2 4858   0.055   4.264   3.204  1.0624  1.5911  0.1224
 1616TP3      O 4859   1.180   4.987   1.863 -0.0092 -0.3393  0.0411
 1616TP3     H1 4860   1.172   5.060   1.800 -1.1132 -1.7107 -1.5015
 1616TP3     H2 4861   1.190   5.030   1.948  0.4969  1.6055 -0.9251
 1617TP3      O 4862   1.635   5.438   2.885 -0.5052  0.2187 -0.2192
 1617TP3     H1 4863   1.718   5.480   2.866  0.3884 -1.4698 -0.2724
 1617TP3     H2 4864   1.577   5.464   2.812 -0.3278  2.0807  0.2581
 1618TP3      O 4865   0.492   4.233   3.431  0.3294  0.0030  0.0369
 1618TP3     H1 4866   0.468   4.190   3.349 -3.4739  0.7142  0.5762
 1618TP3     H2 4867   0.420   4.213   3.490  2.9102 -0.4667  3.2887
 1619TP3      O 4868   1.304   5.642   2.893 -0.0070  0.5429  0.4951
 1619TP3     H1 4869   1.323   5.614   2.982 -1.0158  0.9589  0.8556
 1619TP3     H2 4870   1.308   5.738   2.897  0.5656  0.5496 -0.0593
 1620TP3      O 4871   1.857   5.538   2.601 -0.7176 -0.2804 -0.2543
 1620TP3     H1 4872   1.787   5.561   2.541  0.0312  0.1048 -1.0069
 1620TP3     H2 4873   1.873   5.445   2.586 -2.2713 -0.8247  1.2236
 1621TP3      O 4874   1.372   4.353   0.932 -0.0881 -0.1118 -0.1072
 1621TP3     H1 4875   1.415   4.439   0.935  0.1861 -0.2149 -0.8060
 1621TP3     H2 4876   1.292   4.365   0.984  0.3595  0.3266  0.4894
 1622TP3      O 4877   1.442   4.246   2.278 -0.6473 -0.6771  0.1793
 1622TP3     H1 4878   1.473   4.312   2.216 -1.5098  0.5288  1.0063
 1622TP3     H2 4879   1.521   4.217   2.324 -0.3442  0.2404  0.2506
 1623TP3      O 4880   1.467   4.550   2.785  0.5167  0.8115 -0.2856
 1623TP3     H1 4881   1.555   4.514   2.768  0.0039 -0.7440  0.1662
 1623TP3     H2 4882   1.481   4.644   2.794  2.0394  0.6711 -0.8870
 1624TP3      O 4883   1.325   3.988   3.961  0.1141 -0.4756 -0.0122
 1624TP3     H1 4884   1.420   3.979   3.959  0.1590  0.0421 -0.5875
 1624TP3     H2 4885   1.300   3.997   3.869 -0.6297 -1.9565  0.0152
 1625TP3      O 4886   1.461   4.194   3.315 -0.0120  0.2386 -0.4493
 1625TP3     H1 4887   1.444   4.287   3.301  2.9392  1.0272  0.5793
 1625TP3     H2 4888   1.556   4.187   3.317 -0.0640 -3.1182 -2.2813
 1626TP3      O 4889   1.677   4.371   4.460 -0.1863  0.7833 -0.4131
 1626TP3     H1 4890   1.743   4.439   4.476 -0.4151  1.3021 -1.5969
 1626TP3     H2 4891   1.715   4.317   4.391  0.3542 -0.8288  1.0637
 1627TP3      O 4892   0.914   4.163   3.515  0.3480  0.1785  0.4654
 1627TP3     H1 4893   0.947   4.236   3.463  0.9750  0.5658  1.3655
 1627TP3     H2 4894   0.894   4.201   3.600 -2.0842 -0.1340  0.1034
 1628TP3      O 4895   0.457   4.106   2.537 -0.3868  0.7515 -0.5386
 1628TP3     H1 4896   0.433   4.184   2.486  1.0581  1.2167 -0.5489
 1628TP3     H2 4897   0.484   4.042   2.472 -1.1548  0.3900 -0.5047
 1629TP3      O 4898   5.697   4.165   2.481  0.0953  0.1754  0.3538
 1629TP3     H1 4899   5.634   4.099   2.511  0.4592 -0.5482 -0.4139
 1629TP3     H2 4900   5.688   4.164   2.385  1.9881 -0.7073  0.1448
 1630TP3      O 4901   0.578   0.660   3.075 -0.1410 -0.6254 -0.2129
 1630TP3     H1 4902   0.612   0.744   3.044 -1.7141  1.0948  2.2857
 1630TP3     H2 4903   0.630   0.641   3.153 -1.1591 -0.8535  0.4296
 1631TP3      O 4904   1.023   4.542   1.818  0.2291 -0.0157  0.4285
 1631TP3     H1 4905   0.947   4.499   1.855  0.7115 -0.2753  1.1317
 1631TP3     H2 4906   1.002   4.636   1.823  0.2553 -0.0520  1.2884
 1632TP3      O 4907   1.206   4.053   4.636  0.7862 -0.5443 -0.0851
 1632TP3     H1 4908   1.198   3.981   4.573 -2.1723 -0.0737 -0.3871
 1632TP3     H2 4909   1.219   4.009   4.720  1.2240 -1.3343 -0.5487
 1633TP3      O 4910   1.820   4.261   2.440  0.1804 -0.1139  0.2010
 1633TP3     H1 4911   1.736   4.233   2.477 -0.7331  1.1765 -0.8315
 1633TP3     H2 4912   1.798   4.304   2.358  1.9010 -0.1007 -0.3043
 1634TP3      O 4913   0.582   3.650   3.314 -0.3578  0.0480 -0.1969
 1634TP3     H1 4914   0.513   3.684   3.371 -0.0486  0.2997  0.0272
 1634TP3     H2 4915   0.633   3.591   3.370 -0.1906  0.1158 -0.2767
 1635TP3      O 4916   0.655   5.295   2.163 -0.3887 -0.3894  0.2402
 1635TP3     H1 4917   0.628   5.383   2.192 -1.8187 -0.8651  0.4338
 1635TP3     H2 4918   0.750   5.298   2.165 -0.3900  1.3536 -0.3432
 1636TP3      O 4919   0.250   4.987   3.316 -0.0767  0.0522 -0.3340
 1636TP3     H1 4920   0.268   5.040   3.238  0.9445  0.7825  0.3828
 1636TP3     H2 4921   0.313   5.017   3.381 -0.3022 -1.1888  0.4957
 1637TP3      O 4922   2.055   4.195   2.011 -0.3150  0.1578  0.1052
 1637TP3     H1 4923   2.095   4.115   1.975 -1.5289 -0.6340  0.4782
 1637TP3     H2 4924   2.130   4.248   2.039  0.4935 -1.3751  0.9748
 1638TP3      O 4925   1.427   5.443   3.450 -0.4877 -0.2139 -0.2388
 1638TP3     H1 4926   1.336   5.418   3.434 -0.7515  1.0382 -0.8364
 1638TP3     H2 4927   1.460   5.468   3.364  0.4043 -0.6037 -0.0135
 1639TP3      O 4928   5.793   5.288   1.834 -0.9570 -0.4855  0.2461
 1639TP3     H1 4929   5.772   5.368   1.882 -0.1564 -0.8124  1.1569
 1639TP3     H2 4930   5.718   5.231   1.848 -1.9196  0.3864 -1.0974
 1640TP3      O 4931   1.316   4.787   2.854  0.1986 -0.0048  0.3180
 1640TP3     H1 4932   1.242   4.772   2.794  1.2578 -2.2606 -0.5323
 1640TP3     H2 4933   1.319   4.882   2.864 -2.0691  0.2276 -0.5754
 1641TP3      O 4934   1.056   5.452   4.284  0.3064 -0.0052  0.3357
 1641TP3     H1 4935   1.050   5.445   4.379 -0.6309  0.8920  0.3599
 1641TP3     H2 4936   0.972   5.490   4.258 -0.0287 -1.5469 -0.9918
 1642TP3      O 4937   1.663   5.833   1.440 -0.1780 -0.3838  0.0096
 1642TP3     H1 4938   1.734   5.881   1.483 -1.0474  2.0682 -1.1110
 1642TP3     H2 4939   1.583   5.873   1.473 -0.9172 -0.1137 -1.9662
 1643TP3      O 4940   5.995   4.063   2.786 -0.2956 -0.2381 -0.2174
 1643TP3     H1 4941   5.906   4.074   2.752 -0.3158 -1.4294 -0.5980
 1643TP3     H2 4942   6.052   4.083   2.712 -0.2122  1.2555  0.2324
 1644TP3      O 4943   1.662   5.029   2.754 -0.1799 -0.4375  0.4177
 1644TP3     H1 4944   1.749   4.997   2.733 -0.4570 -0.0374 -1.5513
 1644TP3     H2 4945   1.674   5.081   2.834  0.5152 -4.0248  2.8984
 1645TP3      O 4946   5.766   5.754   2.609  0.1116  0.2407 -0.0830
 1645TP3     H1 4947   5.701   5.771   2.677 -0.5896  1.2987 -0.9848
 1645TP3     H2 4948   5.797   5.841   2.583  0.7746 -0.1817 -0.7333
 1646TP3      O 4949   1.439   4.343   2.981  0.0991 -0.4813 -0.3622
 1646TP3     H1 4950   1.425   4.401   2.905  1.6141  0.2004 -0.1497
 1646TP3     H2 4951   1.473   4.262   2.943 -0.5753 -0.7017 -0.5220
 1647TP3      O 4952   5.747   5.873   4.564 -0.2683 -0.0688 -0.8187
 1647TP3     H1 4953   5.742   5.925   4.484  0.9970  0.5535 -0.5183
 1647TP3     H2 4954   5.731   5.935   4.635 -0.4271 -0.4228 -0.5395
 1648TP3      O 4955   0.588   5.729   3.325  0.6754 -0.4772 -0.2088
 1648TP3     H1 4956   0.633   5.694   3.402  2.0182 -0.0688 -0.7656
 1648TP3     H2 4957   0.521   5.664   3.304 -1.0789  0.3292  2.4354
 1649TP3      O 4958   0.544   4.420   1.444  0.2520 -0.1902 -0.1101
 1649TP3     H1 4959   0.536   4.326   1.429 -0.1618  0.2245 -3.0667
 1649TP3     H2 4960   0.630   4.443   1.409 -0.1783  0.7148 -0.6116
 1650TP3      O 4961   1.122   3.577   3.506  0.0951 -0.2801  0.1496
 1650TP3     H1 4962   1.115   3.483   3.526  0.5426 -0.0480  1.4302
 1650TP3     H2 4963   1.079   3.585   3.420 -0.8815 -1.4878  0.4842
 1651TP3      O 4964   0.489   4.126   1.423 -0.3351 -0.3852  0.1311
 1651TP3     H1 4965   0.572   4.092   1.455 -1.3867 -0.4334  3.1136
 1651TP3     H2 4966   0.455   4.057   1.367  1.1586 -0.7927 -0.3194
 1652TP3      O 4967   0.388   4.190   5.104  0.0470 -0.2964  0.1595
 1652TP3     H1 4968   0.310   4.146   5.139  0.3508 -0.4411  0.6692
 1652TP3     H2 4969   0.395   4.270   5.156  0.3922 -0.4163  0.2980
 1653TP3      O 4970   1.153   4.457   3.567 -0.5120 -0.4039 -0.2734
 1653TP3     H1 4971   1.236   4.503   3.580 -0.1902 -0.7285 -1.0743
 1653TP3     H2 4972   1.178   4.365   3.557 -1.0235 -0.5755 -0.0077
 1654TP3      O 4973   0.750   4.831   2.045  0.2980  0.2543  0.2599
 1654TP3     H1 4974   0.673   4.777   2.026  1.7013 -1.1418 -1.9597
 1654TP3     H2 4975   0.715   4.916   2.070 -1.9540 -0.4677 -0.2651
 1655TP3      O 4976   1.301   4.589   3.778  0.0404 -0.0271  0.2755
 1655TP3     H1 4977   1.323   4.668   3.729  0.1886 -0.7898 -0.9160
 1655TP3     H2 4978   1.380   4.570   3.830  0.7356 -0.4745 -0.9140
 1656TP3      O 4979   1.024   3.986   2.928  0.4860 -0.2594 -0.1517
 1656TP3     H1 4980   1.040   4.031   3.011  0.3962  1.7480 -1.1596
 1656TP3     H2 4981   1.071   3.903   2.937  2.4433  0.8813  1.0441
 1657TP3      O 4982   0.622   3.280   2.779 -0.0183 -0.4791  0.5781
 1657TP3     H1 4983   0.674   3.343   2.729 -0.4042  0.8772  1.8280
 1657TP3     H2 4984   0.678   3.202   2.784  1.5155  0.6137  1.0835
 1658TP3      O 4985   1.455   5.251   1.827  0.5865 -0.0678 -0.0509
 1658TP3     H1 4986   1.367   5.266   1.794  0.3390 -2.7376 -0.8141
 1658TP3     H2 4987   1.443   5.238   1.921  0.1879 -0.3340 -0.1377
 1659TP3      O 4988   0.269   3.603   2.999 -0.5459 -0.4074 -0.5676
 1659TP3     H1 4989   0.306   3.545   2.932 -3.0134 -1.0711 -1.4504
 1659TP3     H2 4990   0.227   3.673   2.948  1.0969  1.4441  0.4517
 1660TP3      O 4991   0.767   4.104   1.503  0.0405  0.0306  0.0614
 1660TP3     H1 4992   0.821   4.030   1.474 -1.7301 -2.5317  2.7549
 1660TP3     H2 4993   0.830   4.170   1.532  1.6749 -0.8868 -1.1980
 1661TP3      O 4994   0.932   4.640   3.222 -0.1336 -0.3720  0.6474
 1661TP3     H1 4995   0.994   4.712   3.231 -1.4331  0.7963  0.6549
 1661TP3     H2 4996   0.880   4.662   3.145 -0.2838 -1.5375  0.3943
 1662TP3      O 4997   1.015   4.848   2.292  0.2968 -0.1051  0.0399
 1662TP3     H1 4998   1.036   4.775   2.234 -0.3901  0.4199 -0.8865
 1662TP3     H2 4999   0.962   4.808   2.362  0.3284 -0.5744 -0.2015
 1663TP3      O 5000   1.394   4.990   2.643 -0.0033 -0.0713  0.3385
 1663TP3     H1 5001   1.365   5.027   2.727  1.7446 -0.4216  1.1475
 1663TP3     H2 5002   1.487   4.970   2.657  0.8903  1.6998 -2.3387
 1664TP3      O 5003   0.928   5.068   3.188  0.1269 -0.0393 -0.3103
 1664TP3     H1 5004   0.852   5.083   3.244  0.4790  0.1195  0.1262
 1664TP3     H2 5005   0.999   5.115   3.231  0.5941 -0.6186 -0.4503
 1665TP3      O 5006   1.877   4.618   1.880  0.7106  0.2798  0.1156
 1665TP3     H1 5007   1.922   4.585   1.958  0.6015 -1.2054 -0.4070
 1665TP3     H2 5008   1.942   4.610   1.810 -0.5012 -2.7021 -0.8287
 1666TP3      O 5009   5.219   4.610   3.278 -0.4604 -0.2205  0.8134
 1666TP3     H1 5010   5.303   4.641   3.313 -0.6719 -0.0264  1.1519
 1666TP3     H2 5011   5.232   4.516   3.267  0.3360  0.0177 -0.6420
 1667TP3      O 5012   0.796   3.402   3.111  0.6147 -0.2214  0.1468
 1667TP3     H1 5013   0.853   3.405   3.034 -0.4196  1.1226 -0.5939
 1667TP3     H2 5014   0.856   3.408   3.185  1.6895 -2.2717 -0.4887
 1668TP3      O 5015   1.140   3.664   1.749  0.4630 -0.1410  0.2305
 1668TP3     H1 5016   1.096   3.746   1.769  0.4348  0.1421 -0.9040
 1668TP3     H2 5017   1.069   3.600   1.739  0.3816  0.0487 -0.4209
 1669TP3      O 5018   1.912   3.982   3.498  0.1560  0.5261 -0.4766
 1669TP3     H1 5019   1.842   4.014   3.442  1.3187  4.1381 -0.1446
 1669TP3     H2 5020   1.975   3.942   3.439 -2.2096 -3.4093 -0.7297
 1670TP3      O 5021   1.459   5.135   3.489  0.0078 -0.2954 -0.0572
 1670TP3     H1 5022   1.545   5.152   3.527 -0.8580  0.0287  1.8705
 1670TP3     H2 5023   1.413   5.218   3.495 -0.1870 -0.2142 -1.9355
 1671TP3      O 5024   1.375   3.607   2.933  0.4454  0.1075 -0.0357
 1671TP3     H1 5025   1.310   3.559   2.884  0.0214  2.1076 -1.5526
 1671TP3     H2 5026   1.454   3.552   2.929 -0.1276 -0.6603 -1.3070
 1672TP3      O 5027   1.680   4.552   2.509 -0.0038 -0.4327  0.3361
 1672TP3     H1 5028   1.679   4.485   2.578 -0.3038  0.1047  0.8694
 1672TP3     H2 5029   1.631   4.625   2.547  1.8729  0.7952  0.4905
 1673TP3      O 5030   0.296   5.369   2.118  0.7254  0.4107 -0.7240
 1673TP3     H1 5031   0.239   5.392   2.192  0.1571  0.9667 -1.3123
 1673TP3     H2 5032   0.338   5.451   2.095  0.6439  0.3168 -1.2222
 1674TP3      O 5033   1.586   4.953   1.852 -0.2092  0.3872  0.7698
 1674TP3     H1 5034   1.664   4.978   1.900  0.8710 -0.8660 -0.2551
 1674TP3     H2 5035   1.513   4.989   1.903  0.8958 -0.4154  3.0151
 1675TP3      O 5036   1.564   4.242   2.525  0.2493 -0.0606  0.0878
 1675TP3     H1 5037   1.547   4.262   2.618  0.2421  2.3457 -0.3692
 1675TP3     H2 5038   1.478   4.248   2.484  0.5004  0.5917 -0.3461
 1676TP3      O 5039   5.864   4.665   2.173 -0.3796 -0.1803  0.1615
 1676TP3     H1 5040   5.848   4.609   2.096  0.2411  1.8895 -1.5820
 1676TP3     H2 5041   5.957   4.653   2.192 -0.6317 -1.0337  0.9097
 1677TP3      O 5042   0.729   5.711   4.103 -0.0736 -0.0603 -0.4382
 1677TP3     H1 5043   0.722   5.801   4.073 -0.1784 -0.2557 -1.0171
 1677TP3     H2 5044   0.761   5.717   4.192  1.4724  0.4870 -1.0131
 1678TP3      O 5045   0.347   5.058   3.866 -0.1927 -0.7532 -0.0219
 1678TP3     H1 5046   0.331   4.969   3.896  1.4861 -1.2691 -0.5235
 1678TP3     H2 5047   0.357   5.050   3.771 -0.9275  0.1222 -0.1822
 1679TP3      O 5048   2.598   5.150   3.582 -0.2892 -0.3218  0.4000
 1679TP3     H1 5049   2.594   5.187   3.671  1.4962  0.6716  0.1109
 1679TP3     H2 5050   2.597   5.227   3.525  0.8570 -0.8206 -0.3249
 1680TP3      O 5051   1.274   5.313   2.705  0.0849 -0.3393  0.3087
 1680TP3     H1 5052   1.331   5.287   2.778 -0.4939 -3.4087 -0.1698
 1680TP3     H2 5053   1.198   5.352   2.746 -0.2987 -2.1574  1.4541
 1681TP3      O 5054   1.182   4.288   2.348  0.0586  0.7680  0.7994
 1681TP3     H1 5055   1.263   4.319   2.308 -0.3581  2.1203  0.9573
 1681TP3     H2 5056   1.210   4.248   2.430  1.0259 -2.7380 -0.9916
 1682TP3      O 5057   0.811   4.099   3.810 -0.1546  0.1486  0.1725
 1682TP3     H1 5058   0.887   4.063   3.764 -0.4820  1.9082 -1.9632
 1682TP3     H2 5059   0.847   4.138   3.889  0.3360 -3.6501  2.0308
 1683TP3      O 5060   1.545   5.070   3.218  0.2987  0.3672  0.1743
 1683TP3     H1 5061   1.543   5.162   3.192 -0.6149  0.0743 -0.9211
 1683TP3     H2 5062   1.497   5.066   3.300 -0.2652  0.7764 -0.1344
 1684TP3      O 5063   0.320   5.084   2.174  0.3728  0.6670  0.4631
 1684TP3     H1 5064   0.288   5.073   2.264 -2.2165 -2.0129 -0.6109
 1684TP3     H2 5065   0.319   5.178   2.160  0.4250  1.1332  3.0975
 1685TP3      O 5066   0.301   4.466   3.196  0.2983 -0.0247 -0.0819
 1685TP3     H1 5067   0.297   4.540   3.256 -1.9462  0.3483 -0.5967
 1685TP3     H2 5068   0.245   4.399   3.236  2.6457 -1.7007  0.6038
 1686TP3      O 5069   1.617   5.213   3.743 -0.7575 -0.2989  0.3774
 1686TP3     H1 5070   1.700   5.231   3.788 -0.2238 -0.1421 -0.6444
 1686TP3     H2 5071   1.572   5.150   3.800 -0.1947  0.0436  1.2247
 1687TP3      O 5072   0.427   5.330   3.838 -0.4496  0.0801  0.1733
 1687TP3     H1 5073   0.485   5.352   3.912  1.1262 -0.0130 -0.9797
 1687TP3     H2 5074   0.413   5.236   3.845 -1.3943  0.2624  1.0688
 1688TP3      O 5075   0.711   4.729   2.313  0.6541 -1.0318 -0.3208
 1688TP3     H1 5076   0.774   4.701   2.379  0.8606  0.9184  0.3719
 1688TP3     H2 5077   0.765   4.759   2.240  0.5520  0.0675  0.0325
 1689TP3      O 5078   0.860   4.637   2.886 -0.1847 -0.3720 -0.7030
 1689TP3     H1 5079   0.833   4.551   2.918  0.8432  0.2493  2.1273
 1689TP3     H2 5080   0.939   4.620   2.835  0.1521 -1.0798  0.0407
 1690TP3      O 5081   0.416   5.321   3.260  0.3104 -0.0718 -0.1007
 1690TP3     H1 5082   0.420   5.315   3.165 -1.9147 -1.7636 -0.1709
 1690TP3     H2 5083   0.408   5.415   3.279 -0.3047  0.2114 -1.6550
 1691TP3      O 5084   1.654   5.404   2.359 -0.2419 -0.0334 -0.3138
 1691TP3     H1 5085   1.565   5.391   2.327  0.1277 -1.8474 -0.7372
 1691TP3     H2 5086   1.658   5.355   2.441  0.6857 -1.0506 -0.9377
 1692TP3      O 5087   1.624   4.746   2.078 -0.8957  0.7536 -0.3987
 1692TP3     H1 5088   1.629   4.689   2.001 -0.1431 -0.6993  0.6961
 1692TP3     H2 5089   1.530   4.766   2.085 -0.9182  1.4422 -2.0276
 1693TP3      O 5090   0.328   5.590   3.580  0.0285 -0.1048 -0.4405
 1693TP3     H1 5091   0.395   5.657   3.592  1.3450 -1.4218 -0.2281
 1693TP3     H2 5092   0.257   5.616   3.640  1.9914 -0.7645  2.3588
 1694TP3      O 5093   0.184   4.932   2.681  0.4385 -0.2529  0.5597
 1694TP3     H1 5094   0.134   4.863   2.638  1.6024 -0.1851 -1.0131
 1694TP3     H2 5095   0.122   4.974   2.739 -1.4590 -0.0019 -1.5078
 1695TP3      O 5096   1.645   4.461   2.223  0.2461 -0.2288 -0.0245
 1695TP3     H1 5097   1.621   4.452   2.316 -0.8222 -0.3094 -0.2921
 1695TP3     H2 5098   1.682   4.548   2.216 -2.0367  0.8125  0.0177
 1696TP3      O 5099   0.157   3.606   4.150  0.1656  0.2774 -0.1312
 1696TP3     H1 5100   0.180   3.655   4.229 -2.4850  0.7735  0.4431
 1696TP3     H2 5101   0.115   3.671   4.093 -0.4186 -0.6444 -0.7780
 1697TP3      O 5102   0.549   3.060   3.896  0.1444  0.9413 -0.3855
 1697TP3     H1 5103   0.518   3.148   3.876  1.4714  1.0015 -2.5808
 1697TP3     H2 5104   0.558   3.018   3.810  3.6853  0.1479  0.2257
 1698TP3      O 5105   0.791   4.778   3.455 -0.3707 -0.3890  0.4430
 1698TP3     H1 5106   0.793   4.684   3.472  0.3127 -0.7892 -1.5706
 1698TP3     H2 5107   0.746   4.786   3.371 -0.2147  1.0752  0.4661
 1699TP3      O 5108   0.983   4.417   2.498 -0.5419 -0.0911 -0.2019
 1699TP3     H1 5109   0.900   4.382   2.531 -0.2579 -0.0787  0.5291
 1699TP3     H2 5110   1.018   4.347   2.442 -0.1489 -0.8533  0.9653
 1700TP3      O 5111   1.739   4.336   1.990 -0.0482  0.1195  0.2237
 1700TP3     H1 5112   1.704   4.363   2.074 -0.2456  0.7181 -0.0478
 1700TP3     H2 5113   1.792   4.258   2.010 -1.9757 -1.1821  0.5613
 1701TP3      O 5114   0.187   3.934   3.192  0.4994 -0.6149  0.0210
 1701TP3     H1 5115   0.195   3.973   3.106  2.5219 -1.6893 -0.3655
 1701TP3     H2 5116   0.099   3.896   3.195  0.6068 -1.0712 -1.8153
 1702TP3      O 5117   5.888   5.416   3.643 -0.2207  0.1171  0.1153
 1702TP3     H1 5118   5.940   5.419   3.723 -2.5816 -0.8543  1.7884
 1702TP3     H2 5119   5.953   5.402   3.574  1.9080  1.0478  1.7960
 1703TP3      O 5120   1.022   4.659   3.743 -0.0617 -0.4906  0.1036
 1703TP3     H1 5121   1.091   4.661   3.810  0.2191  0.3418 -0.1931
 1703TP3     H2 5122   1.059   4.606   3.673  0.1968 -0.2256  0.0366
 1704TP3      O 5123   0.791   3.826   3.994 -0.2763  0.1312  0.5009
 1704TP3     H1 5124   0.780   3.883   3.918  1.5908 -1.8292 -1.4090
 1704TP3     H2 5125   0.875   3.851   4.031  0.1758 -0.7830  0.1303
 1705TP3      O 5126   0.215   4.326   1.791  0.0887 -0.1653 -0.0315
 1705TP3     H1 5127   0.250   4.247   1.830 -0.6630 -0.1165  0.7947
 1705TP3     H2 5128   0.185   4.378   1.866 -2.3107 -0.4966 -0.6628
 1706TP3      O 5129   2.473   4.343   1.586 -0.9121 -0.7019 -0.2472
 1706TP3     H1 5130   2.551   4.396   1.574 -0.2747 -1.3271  0.9417
 1706TP3     H2 5131   2.400   4.402   1.565 -0.2145  0.5102  0.6088
 1707TP3      O 5132   1.336   4.426   2.568 -0.1729  0.1009  0.4603
 1707TP3     H1 5133   1.370   4.470   2.646  0.2130 -1.3350  1.1474
 1707TP3     H2 5134   1.258   4.380   2.598 -0.1439 -0.2912 -0.0428
 1708TP3      O 5135   1.306   5.422   3.872 -0.1563 -0.1123  0.9531
 1708TP3     H1 5136   1.372   5.443   3.806 -0.7837  2.3976  1.0283
 1708TP3     H2 5137   1.245   5.364   3.827 -0.7439  1.7842 -0.8471
 1709TP3      O 5138   0.992   4.787   4.357  0.1264 -0.0432  0.1366
 1709TP3     H1 5139   0.929   4.810   4.425 -0.5692 -1.2691 -0.0510
 1709TP3     H2 5140   0.938   4.758   4.284  0.8899  0.2431 -0.5615
 1710TP3      O 5141   5.500   3.910   4.002 -0.2567  0.3337 -0.3262
 1710TP3     H1 5142   5.558   3.869   4.066 -0.2040 -0.6572 -0.9810
 1710TP3     H2 5143   5.512   4.004   4.016  3.2920  0.2860 -1.9007
 1711TP3      O 5144   1.912   3.452   2.781  0.0837 -0.1339 -0.8595
 1711TP3     H1 5145   1.991   3.445   2.835  0.7732 -1.4952 -1.9639
 1711TP3     H2 5146   1.944   3.485   2.697 -1.1297  3.0827 -0.2194
 1712TP3      O 5147   1.179   5.226   1.726 -0.0311 -0.1265  0.0685
 1712TP3     H1 5148   1.119   5.286   1.770 -0.6005  0.8614 -1.9168
 1712TP3     H2 5149   1.184   5.259   1.636  1.4034 -1.7725 -0.5173
 1713TP3      O 5150   0.754   5.193   2.888 -0.0944  0.1940  0.2256
 1713TP3     H1 5151   0.771   5.285   2.908  0.7388  0.2210 -0.5591
 1713TP3     H2 5152   0.749   5.189   2.793  1.8441 -0.8830  0.1310
 1714TP3      O 5153   0.212   4.761   3.032 -0.0010  0.2633 -0.5840
 1714TP3     H1 5154   0.306   4.752   3.019 -0.2742 -0.3679 -2.4145
 1714TP3     H2 5155   0.173   4.711   2.961 -1.7673 -1.3446  1.3822
 1715TP3      O 5156   0.504   4.153   2.874 -0.1698  0.4178  0.6816
 1715TP3     H1 5157   0.488   4.140   2.780  1.5432  0.0000  0.4221
 1715TP3     H2 5158   0.522   4.247   2.881  1.5939  0.1325  0.2655
 1716TP3      O 5159   0.888   4.389   3.737  0.0285  0.4226  0.1174
 1716TP3     H1 5160   0.972   4.417   3.700 -0.8180  0.0269 -2.2867
 1716TP3     H2 5161   0.909   4.360   3.825  2.6254 -0.6771 -0.7800
 1717TP3      O 5162   1.030   3.757   4.292  0.0853 -0.7652  0.6279
 1717TP3     H1 5163   0.949   3.739   4.245 -0.7809  1.2362  1.2488
 1717TP3     H2 5164   1.099   3.742   4.228 -0.9553  0.0945 -0.7353
 1718TP3      O 5165   5.605   4.606   1.998  0.7362 -0.4710 -0.5919
 1718TP3     H1 5166   5.564   4.623   2.082  2.0917 -0.9515  0.2054
 1718TP3     H2 5167   5.539   4.560   1.947 -0.4412  0.6958 -0.1650
 1719TP3      O 5168   0.409   5.614   2.721 -0.2981 -0.5364  0.1577
 1719TP3     H1 5169   0.485   5.567   2.687 -0.2764  0.0683 -0.6492
 1719TP3     H2 5170   0.334   5.575   2.674 -0.4259 -0.7405  0.5304
 1720TP3      O 5171   0.141   5.387   3.475  0.7242 -0.3381  0.6002
 1720TP3     H1 5172   0.206   5.456   3.483  0.7659 -0.3781  0.6048
 1720TP3     H2 5173   0.111   5.393   3.384  1.1106 -0.6574  0.4528
 1721TP3      O 5174   1.082   4.853   3.154 -0.3255 -0.6440 -0.5706
 1721TP3     H1 5175   1.172   4.883   3.148 -0.7275  0.6301 -0.5368
 1721TP3     H2 5176   1.031   4.933   3.165 -1.5715 -1.2329 -1.7871
 1722TP3      O 5177   0.275   3.958   2.659  0.5034 -0.0007  0.3546
 1722TP3     H1 5178   0.285   3.971   2.754 -0.4073 -0.5002  0.5282
 1722TP3     H2 5179   0.348   4.007   2.621  2.4753 -1.9275  1.4190
 1723TP3      O 5180   0.373   3.462   2.793 -0.7458 -0.0294 -0.7764
 1723TP3     H1 5181   0.401   3.372   2.807  0.5798  0.6610  1.5327
 1723TP3     H2 5182   0.433   3.496   2.727  0.9739  0.0753  0.7723
 1724TP3      O 5183   1.516   4.471   4.654  0.3212  0.2045 -0.4328
 1724TP3     H1 5184   1.457   4.396   4.665 -1.2074  0.7814 -3.4787
 1724TP3     H2 5185   1.559   4.456   4.570 -0.9845  3.2137 -1.8182
 1725TP3      O 5186   0.660   4.936   1.778 -0.6759 -0.4854  0.2756
 1725TP3     H1 5187   0.585   4.942   1.837 -0.8446 -2.0648  0.2463
 1725TP3     H2 5188   0.710   5.017   1.795 -1.8555  0.1195  0.9885
 1726TP3      O 5189   1.466   4.726   2.584  0.6385 -0.4196 -0.3294
 1726TP3     H1 5190   1.456   4.810   2.538  1.0242  0.2519  0.7588
 1726TP3     H2 5191   1.398   4.727   2.651  1.2555 -0.5246  0.3143
 1727TP3      O 5192   5.645   4.950   4.082  0.7410 -0.7412 -0.0973
 1727TP3     H1 5193   5.630   4.992   3.997  1.1732  0.1022  0.2300
 1727TP3     H2 5194   5.645   5.023   4.144  1.0836 -1.2833  0.5429
 1728TP3      O 5195   1.262   3.516   3.279  0.1394  0.7481  0.0822
 1728TP3     H1 5196   1.299   3.428   3.292 -0.5401  0.5715  0.9033
 1728TP3     H2 5197   1.305   3.570   3.346 -1.3075  0.4654  1.2748
 1729TP3      O 5198   1.043   5.163   2.885  0.8584  0.0653  0.3241
 1729TP3     H1 5199   0.969   5.141   2.941 -0.5493  0.0787 -1.4237
 1729TP3     H2 5200   1.063   5.254   2.907 -0.2836  0.3696  0.1681
 1730TP3      O 5201   0.120   4.498   2.014 -0.4009 -0.4202 -0.2499
 1730TP3     H1 5202   0.030   4.467   2.019  0.0225 -1.6623  0.1299
 1730TP3     H2 5203   0.114   4.586   1.977 -1.7053 -0.7434 -0.8383
 1731TP3      O 5204   5.708   5.015   3.778 -0.1749 -0.3290  0.1698
 1731TP3     H1 5205   5.796   4.995   3.745 -1.0367 -2.3201 -1.0973
 1731TP3     H2 5206   5.717   5.103   3.817  1.7167  0.7559 -2.3887
 1732TP3      O 5207   0.849   5.036   3.588  0.0751  0.1191 -0.6617
 1732TP3     H1 5208   0.939   5.070   3.589 -0.4285  1.5235 -0.3382
 1732TP3     H2 5209   0.856   4.949   3.549  1.5745  0.2125 -0.6421
 1733TP3      O 5210   1.371   4.541   2.329 -0.3068  0.5160  0.0560
 1733TP3     H1 5211   1.365   4.485   2.407 -2.2798  1.4383  0.6268
 1733TP3     H2 5212   1.392   4.628   2.363 -0.3193  0.7465 -0.5198
 1734TP3      O 5213   2.944   5.314   3.013 -0.4151 -0.2444 -0.0612
 1734TP3     H1 5214   3.024   5.262   3.017  0.4306  0.8253 -1.6542
 1734TP3     H2 5215   2.922   5.315   2.920 -1.4717  0.6676  0.1824
 1735TP3      O 5216   0.838   5.415   3.277 -0.7367 -0.1486 -0.3541
 1735TP3     H1 5217   0.831   5.495   3.328 -0.3129 -0.2653 -0.1043
 1735TP3     H2 5218   0.807   5.345   3.334  0.9361 -0.4631  0.2467
 1736TP3      O 5219   5.845   4.386   2.420 -0.5548 -0.2651 -0.3928
 1736TP3     H1 5220   5.808   4.413   2.336  1.7163  0.9646 -1.0750
 1736TP3     H2 5221   5.783   4.322   2.454 -1.7132 -0.5512 -2.8458
 1737TP3      O 5222   1.434   5.308   3.002 -0.9462 -0.1771 -0.0849
 1737TP3     H1 5223   1.419   5.387   3.054  0.5924 -0.0914  0.2617
 1737TP3     H2 5224   1.499   5.333   2.937 -1.7837 -0.6830 -1.1648
 1738TP3      O 5225   2.006   4.148   2.621  0.3143  0.3931 -0.2045
 1738TP3     H1 5226   1.939   4.181   2.561  0.1916 -0.1800 -0.3854
 1738TP3     H2 5227   2.089   4.165   2.576  0.1828 -0.8567 -0.9643
 1739TP3      O 5228   1.391   5.305   2.313 -0.1442  0.1739  0.0459
 1739TP3     H1 5229   1.338   5.248   2.369 -2.2502  0.4224 -1.6119
 1739TP3     H2 5230   1.401   5.256   2.231  1.1119  0.6957 -0.1398
 1740TP3      O 5231   0.657   4.736   4.899  0.1489  0.3898 -0.2827
 1740TP3     H1 5232   0.630   4.645   4.902 -0.4443  0.5452 -0.7535
 1740TP3     H2 5233   0.715   4.747   4.975 -1.8277  0.2644  1.3048
 1741TP3      O 5234   2.727   4.993   2.948  0.4605 -0.1051 -0.6938
 1741TP3     H1 5235   2.801   5.011   2.890  1.1642 -0.0031  0.2138
 1741TP3     H2 5236   2.709   5.078   2.989 -1.7755  0.5015 -2.6794
 1742TP3      O 5237   1.055   5.249   4.109 -0.1784 -0.3087  0.5780
 1742TP3     H1 5238   1.126   5.193   4.140 -1.3095 -2.0754  0.1148
 1742TP3     H2 5239   1.059   5.326   4.166  1.6290 -0.6843  1.0336
 1743TP3      O 5240   0.581   4.502   2.592 -0.9908 -0.5601  0.1202
 1743TP3     H1 5241   0.549   4.580   2.637 -2.8267 -0.5117 -1.1448
 1743TP3     H2 5242   0.528   4.430   2.627 -0.4787 -0.9821  0.0512
 1744TP3      O 5243   1.801   5.827   3.233 -0.0434 -0.1807  0.4988
 1744TP3     H1 5244   1.795   5.736   3.263 -2.2749 -0.0217  0.6877
 1744TP3     H2 5245   1.725   5.870   3.273 -1.7231  0.6741 -3.2195
 1745TP3      O 5246   1.242   3.819   2.394  0.2439 -0.0139 -0.0874
 1745TP3     H1 5247   1.331   3.849   2.377  0.5771 -0.7334  0.3364
 1745TP3     H2 5248   1.238   3.806   2.489 -0.4312  0.3813 -0.0553
 1746TP3      O 5249   0.493   3.792   2.862 -0.7386  0.5148 -0.5549
 1746TP3     H1 5250   0.524   3.783   2.952 -1.3255  1.7606 -0.2019
 1746TP3     H2 5251   0.413   3.739   2.859 -1.6198  1.7539  0.1508
 1747TP3      O 5252   1.981   5.336   0.981 -0.1823  0.2908  0.9784
 1747TP3     H1 5253   1.972   5.241   0.979 -0.4701  0.2580  2.5318
 1747TP3     H2 5254   1.902   5.368   0.936  0.5415 -0.1825 -0.7077
 1748TP3      O 5255   0.541   4.179   4.076  0.2877 -0.1618  0.0581
 1748TP3     H1 5256   0.624   4.220   4.101  0.5666 -0.3877 -0.4662
 1748TP3     H2 5257   0.490   4.251   4.038 -0.5877  0.4291  2.2456
 1749TP3      O 5258   1.146   5.620   2.206  0.1666 -0.2186 -0.9903
 1749TP3     H1 5259   1.158   5.680   2.132 -0.0276  1.9913  0.6967
 1749TP3     H2 5260   1.095   5.670   2.270  0.0894 -2.1602  0.5693
 1750TP3      O 5261   1.783   5.682   1.251 -0.5162  0.1597  0.2442
 1750TP3     H1 5262   1.791   5.598   1.297  0.5482  0.4038  0.5360
 1750TP3     H2 5263   1.742   5.740   1.315  1.2743  0.5922  1.0525
 1751TP3      O 5264   5.923   4.788   3.467 -0.1708  0.0140  0.4047
 1751TP3     H1 5265   5.976   4.811   3.391 -2.7110  2.8179 -0.7349
 1751TP3     H2 5266   5.933   4.863   3.526 -2.7890  0.7019  0.0959
 1752TP3      O 5267   1.741   0.158   2.859  0.5809 -0.8150 -0.2520
 1752TP3     H1 5268   1.790   0.196   2.932  1.2834  2.9978 -2.4546
 1752TP3     H2 5269   1.807   0.141   2.792 -0.5097  0.0817 -1.6143
 1753TP3      O 5270   0.503   5.268   1.901 -0.5352 -0.0862 -0.0144
 1753TP3     H1 5271   0.439   5.202   1.878 -1.9611  1.4676 -0.7222
 1753TP3     H2 5272   0.478   5.297   1.989  0.3820 -0.7894  0.4992
 1754TP3      O 5273   1.462   3.594   3.478 -0.2421 -0.0638 -0.1462
 1754TP3     H1 5274   1.540   3.544   3.502 -0.0503 -0.0875 -0.7943
 1754TP3     H2 5275   1.411   3.600   3.559  0.7205  0.4801  0.4415
 1755TP3      O 5276   0.424   5.529   1.894  0.1172 -0.4046  0.1943
 1755TP3     H1 5277   0.480   5.473   1.840 -0.2042 -0.3287 -0.2212
 1755TP3     H2 5278   0.477   5.548   1.971  1.5931  1.4946 -1.1560
 1756TP3      O 5279   1.175   3.887   2.686  0.8218  0.8404 -0.1252
 1756TP3     H1 5280   1.177   3.974   2.645  2.3969  1.6828  1.5671
 1756TP3     H2 5281   1.225   3.898   2.766  0.2260 -1.4312  0.6228
 1757TP3      O 5282   0.496   5.293   2.999  0.1593 -0.3035  0.2934
 1757TP3     H1 5283   0.519   5.380   2.967  0.3338 -0.4136  0.1166
 1757TP3     H2 5284   0.580   5.250   3.014  0.1275  0.1856  2.1590
 1758TP3      O 5285   5.825   5.082   2.971 -0.5287 -0.9089 -0.2775
 1758TP3     H1 5286   5.904   5.103   2.922 -0.1216 -0.6683  0.4767
 1758TP3     H2 5287   5.818   4.987   2.966  0.3769 -1.0279  0.5152
 1759TP3      O 5288   0.449   3.933   4.003  0.5531  0.0476  0.1746
 1759TP3     H1 5289   0.468   4.016   4.047  0.1302  0.7616 -0.9191
 1759TP3     H2 5290   0.469   3.951   3.910 -0.4329 -0.7873 -0.2117
 1760TP3      O 5291   5.293   4.459   1.517  0.4075  0.4588 -0.1719
 1760TP3     H1 5292   5.214   4.435   1.469  0.6507  0.0889 -0.3858
 1760TP3     H2 5293   5.276   4.548   1.548  1.4926  2.0600 -3.7080
 1761TP3      O 5294   1.503   5.249   4.075 -0.0369  0.0329 -0.1154
 1761TP3     H1 5295   1.480   5.312   4.007  0.4046  0.6873  0.3278
 1761TP3     H2 5296   1.478   5.291   4.157 -0.7678 -0.8418  0.1267
 1762TP3      O 5297   0.492   2.767   1.987  0.2661  0.2300  0.0424
 1762TP3     H1 5298   0.573   2.752   2.035  0.4073  0.6695 -0.0618
 1762TP3     H2 5299   0.428   2.791   2.055  0.3139  0.2453  0.0817
 1763TP3      O 5300   0.507   4.676   1.878 -0.3578  0.3738  0.1423
 1763TP3     H1 5301   0.424   4.715   1.906 -0.0331 -0.2132  2.1183
 1763TP3     H2 5302   0.540   4.735   1.811 -1.2995  1.8891  0.9547
 1764TP3      O 5303   5.846   5.464   2.434  0.0986 -0.7370 -0.2551
 1764TP3     H1 5304   5.899   5.385   2.440 -0.5874 -1.1917 -0.0334
 1764TP3     H2 5305   5.808   5.474   2.522  2.2074  1.3039  0.5285
 1765TP3      O 5306   0.669   5.151   2.605  0.2515 -0.1870 -0.4009
 1765TP3     H1 5307   0.745   5.108   2.567  0.0080 -1.2979  0.3097
 1765TP3     H2 5308   0.599   5.086   2.598  0.0055 -0.1423  1.1931
 1766TP3      O 5309   0.567   4.451   2.998 -0.2995 -0.6271 -0.7132
 1766TP3     H1 5310   0.561   4.543   2.971 -0.4087  0.7133  3.2036
 1766TP3     H2 5311   0.477   4.427   3.021  0.1758 -0.3358  1.7999
 1767TP3      O 5312   1.430   0.112   4.329 -0.1069 -0.1476 -0.4994
 1767TP3     H1 5313   1.467   0.024   4.322 -1.7915 -0.8009 -1.7650
 1767TP3     H2 5314   1.385   0.112   4.414  1.5585  0.2021  0.4212
 1768TP3      O 5315   0.926   5.881   2.830 -0.3201  0.7486  0.1526
 1768TP3     H1 5316   0.840   5.896   2.870  0.2545  1.2720  1.2462
 1768TP3     H2 5317   0.975   5.835   2.898  0.0985 -0.0208 -0.6655
 1769TP3      O 5318   1.273   4.908   3.796 -0.5113  0.1469  0.2487
 1769TP3     H1 5319   1.192   4.876   3.836  0.1815  1.0745  2.5243
 1769TP3     H2 5320   1.339   4.899   3.865  1.4484 -0.8717 -1.6295
 1770TP3      O 5321   0.473   4.441   2.030  0.6966 -0.8554  0.2167
 1770TP3     H1 5322   0.529   4.468   2.103  0.3336 -0.6455  0.4205
 1770TP3     H2 5323   0.487   4.508   1.963 -0.1078 -0.2019  0.6736
 1771TP3      O 5324   0.726   3.697   2.185 -0.1167 -0.6166 -0.2791
 1771TP3     H1 5325   0.709   3.676   2.277 -0.0752 -1.0527 -0.3727
 1771TP3     H2 5326   0.705   3.791   2.179 -0.5693 -0.6887  0.0668
 1772TP3      O 5327   1.144   4.350   3.169 -0.4610  1.1504 -0.1339
 1772TP3     H1 5328   1.098   4.432   3.189 -1.4697 -0.0172  2.9742
 1772TP3     H2 5329   1.236   4.374   3.173 -0.6547  2.7834 -2.8481
 1773TP3      O 5330   0.706   4.527   3.541 -0.1899 -0.0734 -0.1600
 1773TP3     H1 5331   0.666   4.515   3.454  0.7883  0.4985 -0.7026
 1773TP3     H2 5332   0.757   4.447   3.555  0.3177  0.1874 -0.4855
 1774TP3      O 5333   0.558   5.574   2.137 -0.1644 -0.0103  0.0228
 1774TP3     H1 5334   0.579   5.562   2.230  1.2090  0.1003 -0.2524
 1774TP3     H2 5335   0.596   5.659   2.115 -2.3183  0.9741 -0.1545
 1775TP3      O 5336   0.506   5.844   2.597 -0.6388  0.2190  0.3446
 1775TP3     H1 5337   0.455   5.763   2.606 -1.4832  0.6140 -0.5777
 1775TP3     H2 5338   0.541   5.860   2.684 -1.5732 -0.4261  0.8595
 1776TP3      O 5339   0.898   5.073   2.450  0.6717 -0.1742  0.2496
 1776TP3     H1 5340   0.986   5.091   2.485  0.8834  1.0000 -0.8146
 1776TP3     H2 5341   0.908   4.992   2.401  1.0331 -0.3255  0.5639
 1777TP3      O 5342   0.277   5.026   2.426 -0.2889 -0.4633  0.5253
 1777TP3     H1 5343   0.228   5.024   2.509 -1.3397 -0.5923 -0.0748
 1777TP3     H2 5344   0.357   4.977   2.443 -0.0786  0.2599  1.7144
 1778TP3      O 5345   2.645   5.864   2.004 -0.0452  0.0515 -0.0307
 1778TP3     H1 5346   2.597   5.797   1.955  0.3344 -0.3637  0.1641
 1778TP3     H2 5347   2.577   5.926   2.032 -0.4903 -0.6053  0.3595
 1779TP3      O 5348   5.416   4.913   2.623  0.8290  0.2738  0.0355
 1779TP3     H1 5349   5.431   4.837   2.566 -0.5510 -0.2376  0.3266
 1779TP3     H2 5350   5.322   4.911   2.642  0.7360  2.1411 -0.0616
 1780TP3      O 5351   0.354   5.339   2.537 -0.4324  0.1471 -0.0867
 1780TP3     H1 5352   0.359   5.262   2.595  0.3692 -0.4155 -0.8683
 1780TP3     H2 5353   0.436   5.386   2.554 -1.0985  1.0516  0.6721
 1781TP3      O 5354   0.885   5.004   4.055  0.6109  0.3062 -0.0585
 1781TP3     H1 5355   0.921   5.092   4.064  2.5315 -0.0408 -3.0611
 1781TP3     H2 5356   0.831   5.007   3.976 -0.5255 -0.8724  0.6290
 1782TP3      O 5357   2.112   3.244   3.908  0.7605 -0.6841 -0.1688
 1782TP3     H1 5358   2.021   3.228   3.881  1.4517 -0.6493 -2.7871
 1782TP3     H2 5359   2.107   3.324   3.959 -0.4260  0.9432 -2.5946
 1783TP3      O 5360   1.169   5.126   2.521  0.0038  0.2182 -0.0537
 1783TP3     H1 5361   1.217   5.044   2.527 -2.1812 -1.3115 -1.5971
 1783TP3     H2 5362   1.202   5.179   2.593  5.1072  0.0414 -1.8553
 1784TP3      O 5363   1.322   4.907   3.151  0.1270  0.3467  0.0192
 1784TP3     H1 5364   1.397   4.955   3.186  0.5334 -0.1518 -0.1526
 1784TP3     H2 5365   1.340   4.900   3.057  0.2324 -0.4087  0.0858
 1785TP3      O 5366   5.749   4.408   3.866 -0.1523  0.3624  0.0256
 1785TP3     H1 5367   5.662   4.424   3.829  0.4109 -0.0384 -1.5240
 1785TP3     H2 5368   5.737   4.332   3.923 -1.0260  0.9725  0.6824
 1786TP3      O 5369   0.603   5.421   2.627  0.1346 -0.2758 -0.0253
 1786TP3     H1 5370   0.620   5.330   2.605 -1.3130 -1.4610  3.1372
 1786TP3     H2 5371   0.684   5.451   2.669  0.3258 -0.3552 -0.3343
 1787TP3      O 5372   1.848   4.197   2.832  0.5509 -0.4294  0.1912
 1787TP3     H1 5373   1.921   4.195   2.894  0.2080 -0.7461  0.5955
 1787TP3     H2 5374   1.886   4.167   2.749  0.5747 -2.0339  0.7451
 1788TP3      O 5375   1.378   2.921   3.104 -0.1025 -0.0701 -0.5039
 1788TP3     H1 5376   1.452   2.865   3.125 -1.7899 -1.9546  0.7437
 1788TP3     H2 5377   1.386   2.937   3.010  1.6475 -0.5290 -0.4622
 1789TP3      O 5378   1.116   5.974   2.218  0.2475 -0.1092 -0.5351
 1789TP3     H1 5379   1.153   5.908   2.277 -0.9545 -1.4522 -1.2244
 1789TP3     H2 5380   1.057   6.025   2.274 -1.5930 -1.9493 -0.6522
 1790TP3      O 5381   0.276   5.553   2.967  0.2368  0.3084 -0.2014
 1790TP3     H1 5382   0.247   5.462   2.980  0.0422  0.4789  0.6017
 1790TP3     H2 5383   0.273   5.565   2.872 -0.6837 -0.2185 -0.2565
 1791TP3      O 5384   1.283   4.069   1.294  0.0638 -0.5159 -0.1618
 1791TP3     H1 5385   1.287   4.019   1.376 -1.0425  0.3270  0.4250
 1791TP3     H2 5386   1.224   4.142   1.313  0.3504  0.0920 -1.5050
 1792TP3      O 5387   1.078   4.539   2.712 -0.0858  0.4520  0.8179
 1792TP3     H1 5388   1.097   4.463   2.768  0.3243  0.8978  1.2955
 1792TP3     H2 5389   1.068   4.502   2.624 -1.1781 -0.3144  1.2492
 1793TP3      O 5390   1.235   3.291   2.671 -0.1988 -0.2801 -0.0935
 1793TP3     H1 5391   1.190   3.370   2.700  1.6115  0.8875 -0.2646
 1793TP3     H2 5392   1.175   3.251   2.608 -0.5878  1.7607 -1.1343
 1794TP3      O 5393   0.242   4.489   2.270  0.1748 -0.0504 -0.3943
 1794TP3     H1 5394   0.235   4.474   2.176 -0.4264  1.5338 -0.6275
 1794TP3     H2 5395   0.237   4.584   2.280  0.2665 -0.1868  1.2405
 1795TP3      O 5396   0.901   5.566   2.000 -0.0578 -0.5316 -0.1832
 1795TP3     H1 5397   0.869   5.603   2.083  0.4410 -0.0094 -0.2172
 1795TP3     H2 5398   0.829   5.581   1.939 -0.2275 -0.4532  0.0342
 1796TP3      O 5399   0.275   3.701   3.772 -0.2213  0.4159 -0.6867
 1796TP3     H1 5400   0.324   3.696   3.855  1.4156  0.2063 -1.6300
 1796TP3     H2 5401   0.193   3.656   3.791 -0.3901  1.3627  1.1521
 1797TP3      O 5402   5.357   4.456   5.003  0.4300  0.4038 -0.1578
 1797TP3     H1 5403   5.275   4.439   4.955  0.8126  0.6615 -0.9114
 1797TP3     H2 5404   5.328   4.489   5.087 -0.2484  0.6902 -0.4939
 1798TP3      O 5405   0.490   4.243   3.759 -0.4482  0.2749 -0.3449
 1798TP3     H1 5406   0.582   4.264   3.773 -0.2957  0.5861 -1.6713
 1798TP3     H2 5407   0.483   4.149   3.775  0.7574 -0.3726 -3.1540
 1799TP3      O 5408   0.032   5.044   4.933  0.4281 -0.1684  0.5088
 1799TP3     H1 5409  -0.015   5.091   5.001  3.0040  1.5908  1.2074
 1799TP3     H2 5410   0.119   5.026   4.970  1.0961 -1.3549 -1.4288
 1800TP3      O 5411   1.326   5.595   4.111  0.5943 -0.3237  0.4750
 1800TP3     H1 5412   1.232   5.604   4.130  0.5848 -1.2612  0.9385
 1800TP3     H2 5413   1.329   5.546   4.029  0.6802 -0.9350  0.8402
 1801TP3      O 5414   1.147   4.580   4.093  0.0954  0.5442  0.8619
 1801TP3     H1 5415   1.157   4.495   4.050  0.0791  1.5322 -1.2256
 1801TP3     H2 5416   1.086   4.564   4.165 -0.3103 -1.1078  0.1875
 1802TP3      O 5417   1.412   4.889   3.568 -0.3450  0.2671 -0.3007
 1802TP3     H1 5418   1.377   4.899   3.657  1.3992 -0.3932  0.5115
 1802TP3     H2 5419   1.421   4.978   3.535  0.3104  0.6151  0.7610
 1803TP3      O 5420   0.978   4.941   4.825  0.0556 -0.2000  0.6118
 1803TP3     H1 5421   0.941   4.864   4.782  1.0663 -0.4220  0.1239
 1803TP3     H2 5422   0.914   4.964   4.892 -0.8116 -0.7661 -0.0029
 1804TP3      O 5423   1.021   5.040   5.957  0.3380  1.0674  0.0350
 1804TP3     H1 5424   0.994   5.115   6.010 -0.2918 -0.7466  2.4216
 1804TP3     H2 5425   0.967   4.967   5.988  0.9377 -0.4303 -2.1750
 1805TP3      O 5426   0.858   4.719   4.660 -0.3271  0.4337  0.3210
 1805TP3     H1 5427   0.814   4.681   4.584 -0.3102 -0.1247  0.5821
 1805TP3     H2 5428   0.885   4.643   4.712 -0.6603  0.8145  1.0662
 1806TP3      O 5429   5.922   4.806   4.391  0.1394  0.2737  0.0219
 1806TP3     H1 5430   5.892   4.781   4.303 -2.5505 -0.9236  1.1678
 1806TP3     H2 5431   5.854   4.865   4.423 -0.0052 -0.9090  2.0216
 1807TP3      O 5432   0.270   5.491   4.460 -0.3942 -0.4761  0.1829
 1807TP3     H1 5433   0.180   5.500   4.427  0.1357 -0.6756 -1.3953
 1807TP3     H2 5434   0.278   5.559   4.527 -2.0282 -1.1147  1.0718
 1808TP3      O 5435   2.640   4.995   5.080 -0.5796 -0.7713 -0.1316
 1808TP3     H1 5436   2.622   5.071   5.023  1.5853  1.2840  1.6980
 1808TP3     H2 5437   2.593   5.015   5.161  0.0589 -1.3227  0.3852
 1809TP3      O 5438   1.140   3.675   0.200  0.1916  0.4108 -0.4052
 1809TP3     H1 5439   1.048   3.651   0.188  0.0569 -0.9964  2.5033
 1809TP3     H2 5440   1.149   3.759   0.155 -1.6023 -0.9069 -3.5757
 1810TP3      O 5441   1.578   4.329   3.815 -0.3544 -0.3585  0.4149
 1810TP3     H1 5442   1.610   4.240   3.803 -0.4707 -0.4659  0.8822
 1810TP3     H2 5443   1.608   4.376   3.737  1.4651 -0.3104  1.0843
 1811TP3      O 5444   0.459   5.710   3.893  0.4376 -0.3785  0.4912
 1811TP3     H1 5445   0.483   5.671   3.977 -1.4495  0.1641  1.3285
 1811TP3     H2 5446   0.427   5.636   3.841 -0.4632 -0.4027  1.0606
 1812TP3      O 5447   1.091   4.932   5.723  0.4465  0.8181 -0.1333
 1812TP3     H1 5448   1.146   4.962   5.650 -0.3012  0.2589 -0.9413
 1812TP3     H2 5449   1.090   5.006   5.784  0.5036  1.5611 -1.0205
 1813TP3      O 5450   0.822   3.642   4.555 -0.5563  0.1359  0.5600
 1813TP3     H1 5451   0.854   3.732   4.559 -0.3710  0.1253 -0.4396
 1813TP3     H2 5452   0.859   3.607   4.474 -2.1476 -0.2605 -0.0200
 1814TP3      O 5453   0.017   4.134   4.767 -0.3194 -0.0128 -0.3765
 1814TP3     H1 5454   0.089   4.072   4.770 -0.2716  0.0734  0.5340
 1814TP3     H2 5455   0.057   4.216   4.737  0.1817  0.3036  1.0773
 1815TP3      O 5456   0.603   5.815   5.753 -0.0637  0.1917  0.2574
 1815TP3     H1 5457   0.676   5.766   5.716 -0.5679 -0.3492 -0.0403
 1815TP3     H2 5458   0.540   5.821   5.681 -0.7860 -0.3115  0.8292
 1816TP3      O 5459   5.772   4.565   3.026  0.4760  0.2133 -0.3340
 1816TP3     H1 5460   5.696   4.508   3.033  0.7759 -0.1598 -0.0751
 1816TP3     H2 5461   5.773   4.613   3.109  2.0435 -1.7127  0.8419
 1817TP3      O 5462   0.437   3.941   5.687  0.3567 -0.8980  0.1622
 1817TP3     H1 5463   0.395   4.019   5.724 -1.2163 -1.0023 -1.2492
 1817TP3     H2 5464   0.514   3.975   5.641 -0.8345  0.0136 -1.2671
 1818TP3      O 5465   0.081   4.247   4.452  0.3083 -0.3556  0.2731
 1818TP3     H1 5466   0.037   4.185   4.393  1.7952 -1.3636  0.1617
 1818TP3     H2 5467   0.154   4.197   4.488  1.8112  1.4495 -0.1277
 1819TP3      O 5468   1.698   5.108   4.355  0.1955 -0.0679 -0.3739
 1819TP3     H1 5469   1.631   5.113   4.423  1.2119  1.2942  0.5855
 1819TP3     H2 5470   1.713   5.200   4.330  0.8426 -0.4459 -1.4285
 1820TP3      O 5471   5.075   5.333   4.477  0.1978 -0.4581 -0.4570
 1820TP3     H1 5472   5.046   5.257   4.427  0.1911 -0.7090 -0.0799
 1820TP3     H2 5473   5.114   5.296   4.556 -2.2030 -0.0164  1.0344
 1821TP3      O 5474   1.936   5.392   4.096  0.4252 -0.3751 -0.4620
 1821TP3     H1 5475   2.010   5.449   4.115  1.7999 -1.8639 -1.0613
 1821TP3     H2 5476   1.901   5.368   4.182  1.7165 -0.9703 -0.0805
 1822TP3      O 5477   2.508   5.089   4.281  0.2559  0.4962  0.1378
 1822TP3     H1 5478   2.447   5.131   4.342  0.7309 -0.6576  1.4463
 1822TP3     H2 5479   2.471   5.002   4.267 -0.2677  0.9941 -1.8868
 1823TP3      O 5480   5.365   4.636   5.850 -0.3802 -0.7430  0.1036
 1823TP3     H1 5481   5.417   4.614   5.926  0.6681  3.1788  0.7780
 1823TP3     H2 5482   5.282   4.667   5.886 -0.3550 -0.0570 -0.4072
 1824TP3      O 5483   5.890   5.700   4.389 -0.0683  0.4577  0.2737
 1824TP3     H1 5484   5.868   5.765   4.323 -2.9366 -0.5785  0.0672
 1824TP3     H2 5485   5.823   5.711   4.457 -0.0825 -1.6204  0.6614
 1825TP3      O 5486   1.541   5.171   4.574 -0.0488 -0.1228  0.2179
 1825TP3     H1 5487   1.462   5.225   4.569 -0.1698 -0.0639  2.2295
 1825TP3     H2 5488   1.510   5.084   4.596  0.4130 -0.1816  0.6637
 1826TP3      O 5489  -0.017   3.412   4.179 -0.6616 -0.7438  0.2587
 1826TP3     H1 5490   0.041   3.487   4.192 -0.8399 -0.8803  2.2987
 1826TP3     H2 5491   0.013   3.371   4.099 -0.5424  1.4882 -0.9210
 1827TP3      O 5492   0.482   3.904   5.230 -0.2761  0.1008 -0.1468
 1827TP3     H1 5493   0.557   3.844   5.224  1.1746  1.6274  1.5598
 1827TP3     H2 5494   0.415   3.853   5.276 -0.4378 -1.3682 -1.8934
 1828TP3      O 5495   1.293   4.228   3.559  0.2957 -0.5907 -0.0836
 1828TP3     H1 5496   1.384   4.237   3.590  0.8423 -3.7223 -0.3705
 1828TP3     H2 5497   1.302   4.200   3.468 -1.2160  4.2801 -2.0175
 1829TP3      O 5498   0.775   5.416   4.954  0.0256 -0.3539 -0.2068
 1829TP3     H1 5499   0.715   5.470   5.006 -0.0042  0.4434 -1.0497
 1829TP3     H2 5500   0.860   5.428   4.997 -0.3748 -1.4667  0.9733
 1830TP3      O 5501   0.545   3.571   5.187 -0.0706  0.2103  0.4533
 1830TP3     H1 5502   0.628   3.606   5.220  1.3570 -1.6016 -1.0229
 1830TP3     H2 5503   0.568   3.486   5.149 -2.5956 -0.2915 -0.1299
 1831TP3      O 5504   0.848   5.262   4.653 -0.1526  0.7586  0.0022
 1831TP3     H1 5505   0.783   5.261   4.582 -0.2843 -2.0909  0.0249
 1831TP3     H2 5506   0.799   5.234   4.730  0.6080  0.9353  0.5617
 1832TP3      O 5507   1.302   5.594   4.562 -0.0303  0.1343 -0.0233
 1832TP3     H1 5508   1.384   5.642   4.563  0.4696 -0.4843 -2.7824
 1832TP3     H2 5509   1.246   5.642   4.501 -1.2739 -0.1669  0.8362
 1833TP3      O 5510   0.707   5.402   4.290  0.1842  0.0497  0.5376
 1833TP3     H1 5511   0.694   5.467   4.359 -0.6709 -0.0865  0.5202
 1833TP3     H2 5512   0.629   5.347   4.294 -1.3080  1.6945 -2.3160
 1834TP3      O 5513   1.117   5.024   3.542  0.4165 -0.4811  0.2798
 1834TP3     H1 5514   1.204   5.029   3.502  0.4548 -0.6824  0.3338
 1834TP3     H2 5515   1.125   4.954   3.606 -0.7317 -3.0110 -2.1330
 1835TP3      O 5516   1.165   5.184   3.783  0.1185  0.1350  0.0805
 1835TP3     H1 5517   1.127   5.194   3.871  0.6572  0.6230  0.2599
 1835TP3     H2 5518   1.212   5.101   3.787 -0.1276 -0.0026  0.1508
 1836TP3      O 5519   0.961   3.501   5.158 -0.1913  0.0807 -0.0432
 1836TP3     H1 5520   0.972   3.547   5.241 -1.9634  1.1966 -0.3685
 1836TP3     H2 5521   0.920   3.565   5.100  2.7602 -0.0304 -2.4706
 1837TP3      O 5522   1.329   3.976   5.497  0.3102  0.4513  1.0425
 1837TP3     H1 5523   1.350   4.026   5.576 -0.3323  1.0163  0.8640
 1837TP3     H2 5524   1.413   3.966   5.453  0.6538  0.2553  1.7244
 1838TP3      O 5525   0.830   4.906   5.703  0.5264  0.3756 -0.2867
 1838TP3     H1 5526   0.818   4.937   5.613  0.5168  1.1842 -0.0181
 1838TP3     H2 5527   0.925   4.899   5.713  0.5202  0.1056 -0.4192
 1839TP3      O 5528   1.195   4.419   5.178 -0.3769 -0.0346  0.1576
 1839TP3     H1 5529   1.198   4.408   5.273 -2.6952 -0.5364  0.2459
 1839TP3     H2 5530   1.286   4.432   5.151  0.1738  1.7400  2.6194
 1840TP3      O 5531   0.815   3.590   4.147 -0.4032 -0.0764 -0.1011
 1840TP3     H1 5532   0.773   3.652   4.087  0.6433  1.5167  0.7529
 1840TP3     H2 5533   0.742   3.552   4.196 -1.0287  1.2363  0.0440
 1841TP3      O 5534   5.451   3.304   4.486 -0.5513  0.2342 -0.0520
 1841TP3     H1 5535   5.534   3.277   4.525 -0.8313  0.0353  0.4245
 1841TP3     H2 5536   5.389   3.302   4.559 -1.9522 -3.6727 -1.1178
 1842TP3      O 5537   0.454   5.993   4.878 -0.1518  0.0002 -0.7302
 1842TP3     H1 5538   0.380   6.028   4.929  0.1012  0.6028 -0.7721
 1842TP3     H2 5539   0.434   5.900   4.868 -0.4777 -0.0165  0.0053
 1843TP3      O 5540   0.343   3.347   4.332 -0.0873  0.5470 -0.0668
 1843TP3     H1 5541   0.354   3.266   4.383  0.0255  0.8856  0.4626
 1843TP3     H2 5542   0.329   3.414   4.399 -0.6005  0.8939 -0.5239
 1844TP3      O 5543   2.305   3.959   0.059 -0.7253  0.6648 -0.1252
 1844TP3     H1 5544   2.306   3.989  -0.032 -1.9278 -0.7102 -0.6403
 1844TP3     H2 5545   2.289   3.865   0.053 -3.3329  0.8947  1.5266
 1845TP3      O 5546   2.074   4.831   4.258 -0.1403  0.1094 -0.5565
 1845TP3     H1 5547   2.161   4.814   4.294 -1.3701 -0.3348  2.4679
 1845TP3     H2 5548   2.033   4.891   4.320 -2.8739 -1.6907 -0.4424
 1846TP3      O 5549   0.224   3.980   4.897  0.1383  0.0686 -0.3830
 1846TP3     H1 5550   0.318   3.969   4.912 -0.1480 -0.1565  1.5049
 1846TP3     H2 5551   0.197   4.047   4.960 -0.9209  0.3489 -1.1078
 1847TP3      O 5552   1.646   5.288   5.413 -0.2730 -0.5896  0.2368
 1847TP3     H1 5553   1.689   5.208   5.382  1.1585 -0.1598  0.9803
 1847TP3     H2 5554   1.581   5.257   5.476  0.6815 -1.1786  0.9755
 1848TP3      O 5555   0.851   5.882   5.312  0.6483 -0.3694  0.3525
 1848TP3     H1 5556   0.780   5.922   5.362  0.0260 -0.1458 -0.6792
 1848TP3     H2 5557   0.822   5.792   5.298  1.0204 -0.5559  0.7548
 1849TP3      O 5558   1.912   4.947   4.439 -0.0885  0.1267 -0.8032
 1849TP3     H1 5559   1.950   5.034   4.449  1.5226 -0.3160 -2.4218
 1849TP3     H2 5560   1.819   4.963   4.422 -0.5369  1.3129  2.1477
 1850TP3      O 5561   1.479   5.649   5.140 -0.2927 -0.8462 -0.2329
 1850TP3     H1 5562   1.468   5.657   5.045  0.1438 -1.7687 -0.3672
 1850TP3     H2 5563   1.497   5.557   5.155 -1.5044 -0.9363  0.8824
 1851TP3      O 5564   5.455   5.216   3.523  0.3626 -0.0139 -0.0778
 1851TP3     H1 5565   5.526   5.255   3.574 -0.2089 -1.4095  1.8648
 1851TP3     H2 5566   5.439   5.131   3.564 -2.1380  0.0606 -0.7591
 1852TP3      O 5567   2.025   5.083   4.818  0.1227  0.1129  0.5900
 1852TP3     H1 5568   1.941   5.125   4.835 -0.0439 -0.2765  0.7323
 1852TP3     H2 5569   2.004   5.007   4.765  0.5449  0.8157 -0.6261
 1853TP3      O 5570   0.893   0.347   4.342  0.0852 -0.0612  0.3217
 1853TP3     H1 5571   0.865   0.370   4.254  0.3508  0.3018  0.3263
 1853TP3     H2 5572   0.906   0.431   4.386  2.3741 -0.1339 -0.0668
 1854TP3      O 5573   1.490   5.863   4.266 -0.0149  0.0961 -0.8284
 1854TP3     H1 5574   1.500   5.861   4.171  3.2112 -2.1311 -0.6251
 1854TP3     H2 5575   1.451   5.778   4.288 -0.2171  0.3593 -0.1320
 1855TP3      O 5576   5.432   3.714   5.162  0.5353  0.5311  0.0556
 1855TP3     H1 5577   5.393   3.744   5.244 -0.0584  1.0997 -0.4237
 1855TP3     H2 5578   5.487   3.787   5.134  1.3334  0.0467  0.3149
 1856TP3      O 5579   1.188   4.709   4.638  0.0969 -0.4362  0.0821
 1856TP3     H1 5580   1.104   4.745   4.610  0.1197 -1.3595 -1.3063
 1856TP3     H2 5581   1.226   4.673   4.557  2.0867  0.4655  0.5678
 1857TP3      O 5582   5.629   0.272   4.227 -0.1755  0.3425  0.4652
 1857TP3     H1 5583   5.661   0.336   4.163  0.4705 -0.9298 -0.5346
 1857TP3     H2 5584   5.598   0.199   4.174 -0.0807 -0.5377  1.5977
 1858TP3      O 5585   1.815   4.198   3.691  0.7471  0.0200  0.2323
 1858TP3     H1 5586   1.874   4.254   3.641 -0.9327  1.6763  0.0210
 1858TP3     H2 5587   1.799   4.123   3.634  2.4167 -0.3551  0.2070
 1859TP3      O 5588   0.193   4.575   5.504 -0.5409  0.2201 -0.4834
 1859TP3     H1 5589   0.113   4.626   5.489 -0.4858  0.5756  0.3677
 1859TP3     H2 5590   0.184   4.499   5.447 -2.3658 -0.7230  0.9587
 1860TP3      O 5591   0.629   5.843   4.363  0.0502 -0.0720 -0.0884
 1860TP3     H1 5592   0.652   5.757   4.398 -0.5581 -0.6276 -0.9966
 1860TP3     H2 5593   0.692   5.903   4.403  1.7729 -1.2146 -0.9469
 1861TP3      O 5594   1.273   4.671   4.377 -0.2978  0.3558  0.1205
 1861TP3     H1 5595   1.232   4.595   4.336  0.2088 -0.1990  0.6342
 1861TP3     H2 5596   1.211   4.743   4.360 -1.0006 -0.2589  0.0177
 1862TP3      O 5597   2.007   3.138   5.570 -0.6152  0.1083 -0.6930
 1862TP3     H1 5598   2.011   3.215   5.513 -0.3160  0.0207 -0.7886
 1862TP3     H2 5599   1.990   3.065   5.510 -2.4340  0.2874 -0.4586
 1863TP3      O 5600   0.597   3.989   3.450 -0.6598  0.3287  0.3113
 1863TP3     H1 5601   0.521   3.945   3.412 -0.5548  1.0211 -0.7493
 1863TP3     H2 5602   0.572   4.082   3.454 -0.6892  0.2843  2.0436
 1864TP3      O 5603   0.323   3.672   5.318  0.0728 -0.2584 -0.5905
 1864TP3     H1 5604   0.400   3.628   5.282  1.4543  1.2468  0.3792
 1864TP3     H2 5605   0.317   3.640   5.408  0.4226  0.6430 -0.2323
 1865TP3      O 5606   1.175   5.217   5.409  0.0413 -0.1307  0.2195
 1865TP3     H1 5607   1.195   5.132   5.447 -1.1679 -0.2253  0.6911
 1865TP3     H2 5608   1.199   5.280   5.477  2.3795  0.0694 -0.6804
 1866TP3      O 5609   1.612   3.947   5.498 -0.1888  0.0874 -0.6685
 1866TP3     H1 5610   1.619   3.953   5.594  0.4276  0.2001 -0.7127
 1866TP3     H2 5611   1.655   4.026   5.466  0.7031 -0.5318 -1.0597
 1867TP3      O 5612   1.378   4.820   4.820  0.1384 -0.2192 -0.1142
 1867TP3     H1 5613   1.336   4.842   4.903 -0.3486 -2.2154  0.2209
 1867TP3     H2 5614   1.306   4.797   4.762  0.4337  1.6778 -1.3062
 1868TP3      O 5615   0.780   4.705   4.149  1.0442  0.3714 -0.6046
 1868TP3     H1 5616   0.723   4.655   4.090  1.2086 -0.3718 -0.1548
 1868TP3     H2 5617   0.772   4.795   4.119 -0.9728  0.4160 -0.0785
 1869TP3      O 5618   0.556   3.861   4.660 -0.7487 -0.0848  0.3696
 1869TP3     H1 5619   0.494   3.788   4.664 -0.6816 -0.1026  1.8911
 1869TP3     H2 5620   0.515   3.931   4.711 -0.3997  0.6236 -0.2896
 1870TP3      O 5621   1.692   5.102   4.002 -0.4571 -0.1241 -0.6690
 1870TP3     H1 5622   1.622   5.143   4.053  1.1329  2.0736 -0.1151
 1870TP3     H2 5623   1.747   5.175   3.973  2.4590 -1.7997  0.1955
 1871TP3      O 5624   0.930   2.919   3.680  0.1764  0.3585 -0.0927
 1871TP3     H1 5625   0.898   2.939   3.592 -0.9333  0.8872  0.4078
 1871TP3     H2 5626   0.861   2.867   3.719  1.9846 -2.5926 -0.5333
 1872TP3      O 5627   5.830   4.442   3.593  0.2987 -0.1981 -0.5518
 1872TP3     H1 5628   5.838   4.429   3.688 -0.9486 -1.3993 -0.5838
 1872TP3     H2 5629   5.738   4.466   3.580  1.1375  3.1402 -1.1706
 1873TP3      O 5630   1.019   4.783   5.375 -0.4183  0.9167 -0.2072
 1873TP3     H1 5631   1.114   4.780   5.369 -0.5028  0.2565 -1.5922
 1873TP3     H2 5632   0.995   4.699   5.413 -0.4552  1.1709  0.3512
 1874TP3      O 5633   2.162   5.771   4.465  0.3997  0.5242  0.0863
 1874TP3     H1 5634   2.184   5.825   4.389 -1.0742 -0.2988 -0.9681
 1874TP3     H2 5635   2.242   5.721   4.483  0.6048  0.3275 -1.2779
 1875TP3      O 5636   5.960   4.962   3.674 -0.2919 -0.5611  0.1544
 1875TP3     H1 5637   6.014   5.040   3.662  1.4202 -1.8747 -1.1322
 1875TP3     H2 5638   5.985   4.927   3.759 -0.5335 -0.1272  0.4077
 1876TP3      O 5639   0.579   5.718   3.639 -0.6496 -0.2075  0.5558
 1876TP3     H1 5640   0.542   5.745   3.723  1.8654 -0.3417  1.8167
 1876TP3     H2 5641   0.666   5.757   3.638 -0.6277 -0.1588 -2.0709
 1877TP3      O 5642   0.491   4.064   3.137  0.4608 -0.0009 -0.3501
 1877TP3     H1 5643   0.416   4.005   3.136  0.2650  0.2493 -1.0599
 1877TP3     H2 5644   0.509   4.082   3.044  1.7663 -0.5157 -0.2192
 1878TP3      O 5645  -0.020   3.862   5.368 -0.3609 -0.3439  0.3800
 1878TP3     H1 5646  -0.008   3.862   5.463 -1.7796 -1.6655  0.6053
 1878TP3     H2 5647   0.035   3.790   5.337 -0.3180 -0.2644  0.2709
 1879TP3      O 5648   0.567   4.534   5.483  0.0033 -0.3139 -0.1592
 1879TP3     H1 5649   0.613   4.602   5.434  0.8030  0.8993  2.1056
 1879TP3     H2 5650   0.631   4.463   5.490  1.3815  1.0028  2.1779
 1880TP3      O 5651   0.895   3.542   3.704  0.1394 -0.1479  0.1911
 1880TP3     H1 5652   0.940   3.510   3.782 -1.2059 -1.3447  0.5212
 1880TP3     H2 5653   0.806   3.561   3.734 -0.5501 -1.0883 -1.1282
 1881TP3      O 5654   1.254   3.607   4.914 -0.2323 -0.0871 -0.4589
 1881TP3     H1 5655   1.174   3.583   4.866 -0.0769 -1.8134  0.0777
 1881TP3     H2 5656   1.304   3.526   4.920  1.8300  1.0671 -1.2012
 1882TP3      O 5657   1.799   5.452   5.894  0.3697  0.0980  0.2677
 1882TP3     H1 5658   1.755   5.458   5.809  0.0521 -0.7639  0.3674
 1882TP3     H2 5659   1.755   5.380   5.939  0.0131  1.0280  1.4761
 1883TP3      O 5660   0.977   4.421   4.996 -0.3073  0.1701 -0.6937
 1883TP3     H1 5661   1.050   4.405   5.056 -1.5409 -2.3221  0.2661
 1883TP3     H2 5662   1.019   4.456   4.917  1.5784  1.5493  0.8137
 1884TP3      O 5663   0.707   4.720   3.771 -0.6345  0.0676 -0.0778
 1884TP3     H1 5664   0.701   4.682   3.684 -1.2652 -0.1355  0.0473
 1884TP3     H2 5665   0.799   4.747   3.779 -1.0996  2.4659 -1.7964
 1885TP3      O 5666   0.124   5.086   4.053  0.6196 -0.0564  0.3177
 1885TP3     H1 5667   0.198   5.075   3.993  1.0037  0.8157  0.6156
 1885TP3     H2 5668   0.068   5.011   4.035  1.8381 -1.0383  0.4683
 1886TP3      O 5669   1.534   4.687   4.438 -0.8084  0.4057  0.7768
 1886TP3     H1 5670   1.554   4.718   4.350 -0.4562  1.3828  1.1910
 1886TP3     H2 5671   1.440   4.667   4.436 -0.3934 -1.6552 -0.4175
 1887TP3      O 5672   0.814   4.211   2.921  0.3732  0.3234 -0.3709
 1887TP3     H1 5673   0.850   4.132   2.882 -1.3051  0.5086 -2.4870
 1887TP3     H2 5674   0.794   4.187   3.012  1.8070 -0.9906 -0.3638
 1888TP3      O 5675   5.639   3.468   4.324  0.1476  0.2560 -0.6751
 1888TP3     H1 5676   5.586   3.426   4.392 -0.2250  0.3302 -0.9228
 1888TP3     H2 5677   5.672   3.395   4.271  0.4249  0.1990 -0.4309
 1889TP3      O 5678   1.768   5.205   4.823  0.4670  0.2615 -0.1686
 1889TP3     H1 5679   1.681   5.246   4.824 -0.7113 -2.0310 -0.8279
 1889TP3     H2 5680   1.810   5.236   4.903 -2.3133 -1.1800  2.0573
 1890TP3      O 5681   0.780   5.010   5.044  0.3024  0.1117  0.0957
 1890TP3     H1 5682   0.751   5.040   5.131  3.1743 -0.0556  1.2160
 1890TP3     H2 5683   0.721   5.054   4.983 -0.8360  1.4787  2.0526
 1891TP3      O 5684   2.102   5.078   0.516  0.4275  0.3891  0.2376
 1891TP3     H1 5685   2.129   5.003   0.463  0.6989  0.1514  0.7105
 1891TP3     H2 5686   2.015   5.053   0.550  0.4159  0.3858  0.2056
 1892TP3      O 5687   1.502   5.307   4.861 -0.1655  0.1817 -0.2021
 1892TP3     H1 5688   1.451   5.256   4.798 -1.4122  0.7484  0.3109
 1892TP3     H2 5689   1.470   5.278   4.946 -0.7565  1.6485  0.1064
 1893TP3      O 5690   1.872   5.165   5.945 -0.1985  0.1931 -0.4519
 1893TP3     H1 5691   1.885   5.091   6.005 -0.3304 -1.8514 -2.7705
 1893TP3     H2 5692   1.933   5.232   5.975 -0.1875 -0.7506  1.8544
 1894TP3      O 5693   0.334   4.002   0.591 -0.4941  0.1198  0.7113
 1894TP3     H1 5694   0.298   3.921   0.554  0.9287 -1.6004  2.8265
 1894TP3     H2 5695   0.265   4.034   0.649 -1.3307  0.8704 -0.6371
 1895TP3      O 5696   1.468   5.585   5.580  0.5774 -0.2199 -0.3103
 1895TP3     H1 5697   1.414   5.657   5.613 -0.2949 -1.7675  1.8592
 1895TP3     H2 5698   1.410   5.537   5.520  1.6007  1.5751 -2.8908
 1896TP3      O 5699   0.466   4.487   3.685 -0.1711 -0.1242 -0.1287
 1896TP3     H1 5700   0.478   4.400   3.724 -0.5782  0.0943  0.4919
 1896TP3     H2 5701   0.555   4.516   3.663  0.1239 -0.0514  1.0744
 1897TP3      O 5702   0.551   4.130   5.375 -0.4868  0.3642  0.1875
 1897TP3     H1 5703   0.570   4.191   5.304  0.9558 -0.3451 -0.0506
 1897TP3     H2 5704   0.508   4.056   5.333 -1.1843  0.6777  0.3196
 1898TP3      O 5705   1.046   4.025   5.610  0.3703 -0.1074  0.1891
 1898TP3     H1 5706   1.138   4.048   5.624  0.0956  0.4936  1.0479
 1898TP3     H2 5707   1.042   4.002   5.517  0.7948  2.7852 -0.6355
 1899TP3      O 5708   5.717   5.383   4.571 -0.6235 -0.1607 -0.0141
 1899TP3     H1 5709   5.743   5.350   4.657 -0.6613 -2.1587 -0.7096
 1899TP3     H2 5710   5.639   5.332   4.549 -1.5956  1.4744 -0.5563
 1900TP3      O 5711   0.513   4.897   3.533 -0.0549 -0.0669  0.7028
 1900TP3     H1 5712   0.609   4.892   3.523 -0.1981  1.2840 -3.1358
 1900TP3     H2 5713   0.490   4.980   3.492 -3.0100 -1.0363  0.2143
 1901TP3      O 5714   0.517   4.746   4.666 -0.0524  0.1220  0.2003
 1901TP3     H1 5715   0.577   4.754   4.591 -0.0281  2.7822  0.3944
 1901TP3     H2 5716   0.574   4.752   4.742 -0.2813 -0.4343  0.4147
 1902TP3      O 5717   1.816   0.047   4.350  0.2341  0.1299 -0.0265
 1902TP3     H1 5718   1.871  -0.020   4.309  1.3736  0.8337  0.3017
 1902TP3     H2 5719   1.757  -0.003   4.407 -0.4283 -0.7427 -1.4354
 1903TP3      O 5720   0.780   3.925   4.915  0.0191 -0.6083  0.6422
 1903TP3     H1 5721   0.812   3.958   4.831  0.2185 -0.9284  0.5873
 1903TP3     H2 5722   0.686   3.938   4.913  0.1737  0.6445  0.9357
 1904TP3      O 5723   1.655   4.290   4.989  0.2377  0.1357 -0.2533
 1904TP3     H1 5724   1.630   4.249   4.907  0.4465 -0.5465  0.0174
 1904TP3     H2 5725   1.735   4.339   4.969  1.3195 -1.4999 -0.0610
 1905TP3      O 5726   5.903   5.293   4.052  0.2147  0.0213  0.0824
 1905TP3     H1 5727   5.987   5.249   4.037  0.6888  1.2607 -1.1157
 1905TP3     H2 5728   5.894   5.297   4.147  2.1699  1.0442  0.2617
 1906TP3      O 5729   0.178   4.191   5.709  0.2209 -0.1217 -0.1257
 1906TP3     H1 5730   0.117   4.186   5.636  0.2158  1.9058 -0.3190
 1906TP3     H2 5731   0.261   4.217   5.670  0.3326  0.5231  0.5069
 1907TP3      O 5732   2.453   4.964   5.953  0.5042  0.4916 -0.0837
 1907TP3     H1 5733   2.470   4.915   6.034 -0.8076 -0.7250 -0.4969
 1907TP3     H2 5734   2.417   5.048   5.983  1.4820  0.6770  0.6095
 1908TP3      O 5735   0.416   4.421   5.299  0.2906 -0.1432  0.3504
 1908TP3     H1 5736   0.375   4.355   5.355  1.4970 -1.8599 -0.6882
 1908TP3     H2 5737   0.469   4.473   5.359 -0.7010 -0.0902  1.2054
 1909TP3      O 5738   1.150   3.598   0.541  0.1867 -0.1774  0.1699
 1909TP3     H1 5739   1.138   3.505   0.557 -1.4663 -0.3250 -1.5598
 1909TP3     H2 5740   1.083   3.641   0.594  1.0024  0.0706  1.0339
 1910TP3      O 5741   0.114   4.426   4.687 -0.0673  0.1572  0.3674
 1910TP3     H1 5742   0.194   4.378   4.705  0.3046  0.5956 -0.0636
 1910TP3     H2 5743   0.125   4.457   4.596  0.9070  3.2574  1.3975
 1911TP3      O 5744   2.052   4.256   4.426 -0.1748 -0.4958  0.3913
 1911TP3     H1 5745   2.096   4.177   4.394 -1.3578 -0.9396 -0.1978
 1911TP3     H2 5746   2.063   4.253   4.521 -1.4287 -2.1409  0.5144
 1912TP3      O 5747   0.670   4.392   4.241 -0.5061 -0.9765  0.4902
 1912TP3     H1 5748   0.639   4.434   4.161 -0.4229  1.3538  1.5991
 1912TP3     H2 5749   0.596   4.396   4.301 -0.5019 -2.5273  0.6447
 1913TP3      O 5750   0.207   3.258   4.083 -0.2344 -0.3929  0.5221
 1913TP3     H1 5751   0.248   3.317   4.145  1.5623 -1.6913  0.6407
 1913TP3     H2 5752   0.199   3.175   4.131 -0.6163 -0.8731 -0.3466
 1914TP3      O 5753   5.980   5.687   4.890  0.2855 -0.3717  0.0104
 1914TP3     H1 5754   6.018   5.606   4.922  0.4358 -1.1126 -1.8830
 1914TP3     H2 5755   5.890   5.686   4.922  0.8322 -0.2938  1.6395
 1915TP3      O 5756   0.770   3.745   5.127  0.4572 -0.5182 -0.2650
 1915TP3     H1 5757   0.846   3.800   5.105  0.1970  0.5940  1.3863
 1915TP3     H2 5758   0.720   3.740   5.046  2.0076 -0.8287 -1.2521
 1916TP3      O 5759   1.654   4.489   5.618 -0.1576 -0.5078 -0.2698
 1916TP3     H1 5760   1.734   4.540   5.625 -0.2916 -0.3401  0.0333
 1916TP3     H2 5761   1.631   4.494   5.525  0.3037 -0.7453 -0.4016
 1917TP3      O 5762   0.013   3.196   4.337  0.7700 -0.5332  0.0882
 1917TP3     H1 5763   0.053   3.136   4.274 -1.1341  0.9906 -2.8045
 1917TP3     H2 5764   0.003   3.278   4.289 -3.7863 -0.1888  1.1752
 1918TP3      O 5765   1.629   4.067   4.185  0.1068  0.3668  0.3718
 1918TP3     H1 5766   1.643   4.015   4.106 -0.7375  0.7220 -0.0204
 1918TP3     H2 5767   1.712   4.111   4.200  0.9603 -1.3071  0.8912
 1919TP3      O 5768   0.698   3.943   4.244 -0.6695  0.1981 -0.0890
 1919TP3     H1 5769   0.684   3.880   4.174  1.7656 -0.6138  0.0360
 1919TP3     H2 5770   0.756   4.009   4.205 -0.0876  0.2610  0.8490
 1920TP3      O 5771   1.571   4.676   5.243 -0.0295  0.4613 -0.2518
 1920TP3     H1 5772   1.651   4.715   5.277  0.5700 -0.2742 -0.7593
 1920TP3     H2 5773   1.586   4.581   5.250 -0.9025  0.3139 -0.2487
 1921TP3      O 5774   1.090   5.785   4.498 -0.3373  0.3615 -0.3375
 1921TP3     H1 5775   1.029   5.797   4.570  0.0264  2.1068 -0.2672
 1921TP3     H2 5776   1.142   5.866   4.498  2.7703 -1.4860  0.3519
 1922TP3      O 5777   0.973   4.536   5.535  0.1975 -0.1163  0.8527
 1922TP3     H1 5778   0.936   4.461   5.489 -1.4825  0.2840  1.4726
 1922TP3     H2 5779   0.911   4.553   5.605  2.4737 -0.4993  3.1200
 1923TP3      O 5780   0.836   3.893   3.434 -0.3830  0.1929  0.5593
 1923TP3     H1 5781   0.878   3.976   3.454 -0.6228  0.2240  0.9404
 1923TP3     H2 5782   0.742   3.913   3.433 -0.4874 -0.2155  1.3624
 1924TP3      O 5783   1.093   4.849   3.977  0.0093  0.4523 -0.0282
 1924TP3     H1 5784   1.103   4.769   4.028 -1.2091  0.5800  0.4572
 1924TP3     H2 5785   1.016   4.891   4.014 -0.3618  1.0140 -1.3676
 1925TP3      O 5786   0.359   5.315   4.999 -0.1266  0.5021 -0.2903
 1925TP3     H1 5787   0.421   5.243   4.981  1.2956  1.4602  0.5403
 1925TP3     H2 5788   0.286   5.272   5.044  0.9720 -0.3828  0.7564
 1926TP3      O 5789   0.445   4.773   4.024 -0.0035  0.1933 -0.1478
 1926TP3     H1 5790   0.434   4.705   4.091  0.4717  1.2737  1.0630
 1926TP3     H2 5791   0.498   4.731   3.956  0.8415 -0.4635  0.8817
 1927TP3      O 5792   5.700   3.616   4.935  0.1517  0.0334 -0.2052
 1927TP3     H1 5793   5.763   3.672   4.980 -0.3607  0.8261 -0.4541
 1927TP3     H2 5794   5.635   3.676   4.899  0.8055 -0.4982 -2.4673
 1928TP3      O 5795   0.588   3.761   5.507 -0.0131 -0.3568  0.2881
 1928TP3     H1 5796   0.673   3.800   5.486  0.0138 -0.3456  0.4213
 1928TP3     H2 5797   0.582   3.765   5.602 -1.0691  1.5497  0.1769
 1929TP3      O 5798   0.970   3.271   0.260  0.0279  0.1082  0.3548
 1929TP3     H1 5799   0.888   3.315   0.282  0.2407  1.2136 -0.9828
 1929TP3     H2 5800   0.946   3.211   0.189  0.2792  0.0026  0.3588
 1930TP3      O 5801   5.946   4.648   4.689 -0.0482 -0.2318  0.2495
 1930TP3     H1 5802   6.041   4.642   4.680 -0.0825 -0.2207 -0.1587
 1930TP3     H2 5803   5.912   4.589   4.621 -0.3436  0.9678 -0.6958
 1931TP3      O 5804   0.461   5.327   4.705  0.2581 -0.0713  0.0711
 1931TP3     H1 5805   0.367   5.318   4.692  0.5059 -1.9082 -0.7680
 1931TP3     H2 5806   0.500   5.266   4.641  2.0709  1.6973 -0.6192
 1932TP3      O 5807   1.553   5.556   4.248  0.3411 -0.3273 -0.4955
 1932TP3     H1 5808   1.486   5.576   4.183  0.6400 -0.6333 -0.9015
 1932TP3     H2 5809   1.519   5.479   4.294 -1.1201  1.3946  1.5057
 1933TP3      O 5810   1.048   3.496   4.824  0.0798  0.4805  0.0279
 1933TP3     H1 5811   1.028   3.404   4.838 -0.0710  0.4307 -0.5174
 1933TP3     H2 5812   0.963   3.540   4.825  0.1044  0.5383 -0.2671
 1934TP3      O 5813   0.060   3.254   4.952  0.2994 -0.3869  0.3705
 1934TP3     H1 5814  -0.004   3.325   4.950  0.7659  0.0807  1.4555
 1934TP3     H2 5815   0.016   3.185   5.002  0.6453 -0.0362  1.1842
 1935TP3      O 5816   5.881   5.374   0.293  0.6143 -0.5962 -0.1262
 1935TP3     H1 5817   5.934   5.333   0.361  2.2811 -1.5012 -1.8709
 1935TP3     H2 5818   5.914   5.336   0.211  1.5966  3.4495 -1.8313
 1936TP3      O 5819   0.896   4.404   0.710  0.0583 -0.1615 -0.5962
 1936TP3     H1 5820   0.948   4.378   0.786 -1.1505  0.4677  0.4717
 1936TP3     H2 5821   0.940   4.361   0.636  0.9768 -1.1828  0.4916
 1937TP3      O 5822   0.365   4.969   4.688  0.0150 -0.0951  0.4480
 1937TP3     H1 5823   0.404   4.883   4.671  0.3563  0.2088 -0.3854
 1937TP3     H2 5824   0.277   4.963   4.649  0.1425  0.0217  0.1393
 1938TP3      O 5825   2.284   3.077   5.568  0.1976 -0.5371  0.1661
 1938TP3     H1 5826   2.256   2.991   5.537  0.6555 -0.8126  0.4923
 1938TP3     H2 5827   2.203   3.124   5.585 -0.1064 -1.5578  1.7928
 1939TP3      O 5828   1.161   5.870   0.267  0.0645 -0.3946 -0.2634
 1939TP3     H1 5829   1.103   5.803   0.230  1.5173 -0.7104 -2.1617
 1939TP3     H2 5830   1.216   5.823   0.329 -1.4498 -0.1463  1.3377
 1940TP3      O 5831   5.805   5.293   5.725  0.7877  0.5522  0.2396
 1940TP3     H1 5832   5.882   5.240   5.741  0.8461  0.9045  1.2086
 1940TP3     H2 5833   5.734   5.246   5.769  0.4461  0.2410 -0.6274
 1941TP3      O 5834   0.345   5.192   5.463 -0.4433 -0.0457  0.4595
 1941TP3     H1 5835   0.294   5.254   5.515  0.0843 -0.1898  1.1533
 1941TP3     H2 5836   0.308   5.106   5.484 -0.0570 -0.1296  0.7928
 1942TP3      O 5837   0.256   4.053   4.496 -0.1355  0.3304 -0.5130
 1942TP3     H1 5838   0.339   4.072   4.452  0.6498 -0.7944  0.4189
 1942TP3     H2 5839   0.259   3.959   4.513 -1.9122  0.1412 -1.0503
 1943TP3      O 5840   4.875   3.825   0.007 -0.6328  0.6810  0.3899
 1943TP3     H1 5841   4.967   3.825  -0.017 -0.7832  0.9348 -0.2111
 1943TP3     H2 5842   4.864   3.904   0.060 -0.7817  1.4070 -0.6861
 1944TP3      O 5843   5.810   4.680   5.021 -0.1588  0.3358  0.0859
 1944TP3     H1 5844   5.735   4.672   4.962 -0.2974 -1.5415  0.4700
 1944TP3     H2 5845   5.872   4.614   4.990  0.4446  0.4273  1.0657
 1945TP3      O 5846   1.446   4.459   4.176 -1.0034  0.0607 -0.2037
 1945TP3     H1 5847   1.442   4.366   4.155 -1.2918  0.1950 -0.7706
 1945TP3     H2 5848   1.410   4.465   4.265  1.4673 -0.6732  0.9064
 1946TP3      O 5849   2.352   5.092   4.962  0.4678  0.2181 -0.7588
 1946TP3     H1 5850   2.294   5.016   4.955  2.9152 -1.7521 -0.9600
 1946TP3     H2 5851   2.360   5.125   4.872  2.3186 -1.6866 -1.3570
 1947TP3      O 5852   2.379   5.961   5.288 -0.1328  0.0483 -0.2130
 1947TP3     H1 5853   2.297   6.010   5.283  0.7597  1.7319  0.7450
 1947TP3     H2 5854   2.355   5.880   5.332 -1.1160  1.0106  1.1244
 1948TP3      O 5855   5.126   4.728   5.090 -0.2972  0.1198 -0.0610
 1948TP3     H1 5856   5.054   4.765   5.040 -2.2791 -0.5797  2.1253
 1948TP3     H2 5857   5.111   4.634   5.089  1.7168 -0.2562 -1.1232
 1949TP3      O 5858   0.548   0.259   5.555 -0.6009  0.1959  0.2113
 1949TP3     H1 5859   0.477   0.269   5.619 -1.9436  1.2626 -1.3720
 1949TP3     H2 5860   0.523   0.315   5.482  0.7901 -1.1011 -1.3461
 1950TP3      O 5861   2.148   4.514   4.311  0.6241 -0.4149 -0.4530
 1950TP3     H1 5862   2.110   4.476   4.232 -2.7042  0.3354  0.6354
 1950TP3     H2 5863   2.117   4.459   4.382 -0.2734  1.4522  0.6950
 1951TP3      O 5864   1.664   5.518   4.934 -0.0196 -0.3792 -0.3683
 1951TP3     H1 5865   1.603   5.466   4.883 -0.0480 -1.0330  0.3119
 1951TP3     H2 5866   1.680   5.596   4.881 -1.3717 -0.2357 -0.5940
 1952TP3      O 5867   0.363   5.748   5.154  0.0880 -0.4438 -0.3706
 1952TP3     H1 5868   0.339   5.740   5.062 -0.3947 -2.3739 -0.1140
 1952TP3     H2 5869   0.344   5.662   5.191 -0.0955  0.4171  1.6306
 1953TP3      O 5870   1.277   4.559   5.602  0.2034 -0.3056  0.3304
 1953TP3     H1 5871   1.301   4.648   5.579  2.2054 -0.3263  2.0533
 1953TP3     H2 5872   1.311   4.506   5.530 -0.8098  0.2415 -0.5940
 1954TP3      O 5873   1.598   4.651   4.850 -0.5181 -0.6597  0.3557
 1954TP3     H1 5874   1.562   4.595   4.781 -1.2920 -1.0035  1.0150
 1954TP3     H2 5875   1.541   4.729   4.849 -0.1403 -0.3840  0.1893
 1955TP3      O 5876   0.676   4.701   4.424 -0.2834 -0.1806 -0.0066
 1955TP3     H1 5877   0.721   4.628   4.381  0.4753 -1.0137  2.0615
 1955TP3     H2 5878   0.684   4.773   4.362  1.5942 -1.0375 -0.8621
 1956TP3      O 5879   1.087   5.712   5.853  0.4552 -0.1812  0.3574
 1956TP3     H1 5880   1.060   5.765   5.928 -0.2070 -1.2658  0.9053
 1956TP3     H2 5881   1.006   5.699   5.803  0.2488 -2.0579  1.1258
 1957TP3      O 5882   2.073   3.828   4.029  0.2062  0.1181  0.6355
 1957TP3     H1 5883   2.156   3.785   4.007 -0.1610 -0.3807  0.1904
 1957TP3     H2 5884   2.097   3.918   4.049  0.4283  1.2937 -3.8590
 1958TP3      O 5885   5.218   3.037   5.447  0.4845  0.0300  0.2747
 1958TP3     H1 5886   5.263   3.005   5.525  0.8987  0.1344  0.0838
 1958TP3     H2 5887   5.174   3.117   5.476  0.9457  0.2740  0.3142
 1959TP3      O 5888   1.388   5.164   5.062  0.4838  0.0889 -0.0173
 1959TP3     H1 5889   1.296   5.168   5.086  0.2206 -0.8920 -0.7952
 1959TP3     H2 5890   1.423   5.091   5.112  0.5036 -0.4176 -0.7527
 1960TP3      O 5891   0.620   5.168   5.500  0.1197  0.1200  0.0988
 1960TP3     H1 5892   0.524   5.168   5.490  0.0135 -2.7021  0.2254
 1960TP3     H2 5893   0.651   5.112   5.429  1.7472  1.1391 -0.0528
 1961TP3      O 5894   0.648   4.499   3.954  0.5043 -0.4609 -0.5750
 1961TP3     H1 5895   0.693   4.553   3.890  1.0965 -0.5398 -0.2329
 1961TP3     H2 5896   0.558   4.493   3.922 -0.5460  3.5763  1.1108
 1962TP3      O 5897   0.889   5.928   3.409  0.6207 -0.2592  0.1188
 1962TP3     H1 5898   0.834   5.995   3.448  1.3486  0.7945 -0.6267
 1962TP3     H2 5899   0.954   5.909   3.477  0.2396 -0.4413  0.4415
 1963TP3      O 5900   0.579   5.558   4.678  0.1764 -0.6231  0.2254
 1963TP3     H1 5901   0.500   5.612   4.670  0.4556 -0.2481 -0.0162
 1963TP3     H2 5902   0.547   5.474   4.710 -0.2247 -0.2162  0.9218
 1964TP3      O 5903   1.837   4.839   4.705 -0.0715 -0.1887  0.1763
 1964TP3     H1 5904   1.742   4.833   4.703  0.0161 -2.4423 -2.6799
 1964TP3     H2 5905   1.862   4.873   4.619  1.7659 -1.0470  0.3142
 1965TP3      O 5906   0.700   4.941   4.286 -0.2889 -0.1243 -0.2553
 1965TP3     H1 5907   0.768   4.993   4.243 -0.3087 -1.2074 -1.7147
 1965TP3     H2 5908   0.620   4.992   4.275 -0.2823 -0.3485 -1.5480
 1966TP3      O 5909   0.797   4.509   5.174  0.4289  0.3793  0.2339
 1966TP3     H1 5910   0.854   4.466   5.110  0.1353  0.5889 -0.1787
 1966TP3     H2 5911   0.818   4.602   5.167 -0.3054  0.5186 -0.2862
 1967TP3      O 5912   0.349   4.673   4.444  0.3654 -0.0365  0.6413
 1967TP3     H1 5913   0.404   4.681   4.522  1.0340  3.8308 -0.0047
 1967TP3     H2 5914   0.264   4.643   4.477  0.6244  1.4636  2.8912
 1968TP3      O 5915   0.690   4.455   4.641 -0.1794  0.0213  0.1087
 1968TP3     H1 5916   0.684   4.417   4.729 -3.3161 -0.2056 -0.1110
 1968TP3     H2 5917   0.677   4.381   4.582  0.7520  0.3645 -0.5637
 1969TP3      O 5918   5.666   5.256   3.903  0.0665  0.2892 -0.5677
 1969TP3     H1 5919   5.599   5.263   3.971  0.1789  0.0309 -0.4276
 1969TP3     H2 5920   5.746   5.287   3.945  0.0546  0.5129 -0.7073
 1970TP3      O 5921   0.812   3.869   5.391  0.0708  0.2557  0.4298
 1970TP3     H1 5922   0.813   3.802   5.323 -0.3768  1.4895 -0.8542
 1970TP3     H2 5923   0.859   3.943   5.353 -0.5136  1.1186  1.3123
 1971TP3      O 5924   5.717   3.860   5.280  0.6898  0.4788  0.0890
 1971TP3     H1 5925   5.698   3.773   5.317  3.2163  0.2889  1.1229
 1971TP3     H2 5926   5.807   3.878   5.305  0.3913  3.2540 -0.4858
 1972TP3      O 5927   0.046   4.034   3.613 -0.3119 -0.1066 -0.3140
 1972TP3     H1 5928   0.011   4.061   3.528  1.8025 -0.0159 -1.2143
 1972TP3     H2 5929   0.136   4.066   3.613  0.7954 -2.9005  0.5929
 1973TP3      O 5930   1.873   4.687   5.587 -0.4651  0.5996 -0.5904
 1973TP3     H1 5931   1.966   4.674   5.602 -0.3741  0.0353 -1.5302
 1973TP3     H2 5932   1.843   4.740   5.660  0.1811 -0.9082  0.8288
 1974TP3      O 5933   5.468   3.400   3.404 -0.0239 -0.1907  0.1053
 1974TP3     H1 5934   5.506   3.312   3.402 -1.4531 -0.8454  0.0205
 1974TP3     H2 5935   5.431   3.407   3.492 -0.1986  0.1980 -0.0003
 1975TP3      O 5936   0.493   5.206   4.112  0.1817 -0.5643  0.5517
 1975TP3     H1 5937   0.440   5.216   4.191 -1.2831 -0.9344 -0.3428
 1975TP3     H2 5938   0.456   5.128   4.068  0.8806 -0.2996 -0.5441
 1976TP3      O 5939   0.560   4.468   4.969  0.6987  0.4481  0.4702
 1976TP3     H1 5940   0.589   4.391   4.918  0.9852  0.6158  0.3748
 1976TP3     H2 5941   0.594   4.452   5.057  4.0851  2.1841 -0.3377
 1977TP3      O 5942   2.341   0.082   4.441 -0.6893  0.1012 -0.0210
 1977TP3     H1 5943   2.344   0.170   4.479  0.3917 -0.0428  0.2661
 1977TP3     H2 5944   2.407   0.032   4.491 -1.1144 -0.8004 -0.3442
 1978TP3      O 5945   0.459   4.239   5.695 -0.3800  0.1397  0.3354
 1978TP3     H1 5946   0.550   4.211   5.688 -0.4586  0.1350 -0.9264
 1978TP3     H2 5947   0.460   4.308   5.762  0.6559  0.5704 -0.0991
 1979TP3      O 5948   1.813   4.761   5.325  0.5859  0.8200 -0.0475
 1979TP3     H1 5949   1.866   4.737   5.249  1.8200  2.4500  0.2348
 1979TP3     H2 5950   1.854   4.716   5.399  0.1683  0.2588 -0.1538
 1980TP3      O 5951   5.568   0.248   0.326 -0.3654  0.1260 -0.8447
 1980TP3     H1 5952   5.632   0.182   0.353 -0.2845  0.2876 -0.6432
 1980TP3     H2 5953   5.601   0.330   0.363 -1.3709 -0.0009  0.3653
 1981TP3      O 5954   0.922   4.133   5.068  0.3678  0.2113 -0.6998
 1981TP3     H1 5955   0.868   4.077   5.011 -0.2626  0.5292 -0.4255
 1981TP3     H2 5956   0.933   4.214   5.019 -0.2352  0.5115 -0.3450
 1982TP3      O 5957   1.543   3.745   3.797  0.1695  0.0829 -0.5412
 1982TP3     H1 5958   1.545   3.730   3.891  0.3255  2.7084 -0.0326
 1982TP3     H2 5959   1.467   3.697   3.766  1.0266 -2.1456  0.6018
 1983TP3      O 5960   0.919   4.131   4.737  0.1014 -0.5026 -0.0774
 1983TP3     H1 5961   1.007   4.113   4.769 -0.7030  0.5537  3.0659
 1983TP3     H2 5962   0.926   4.124   4.641  4.1333  2.0039 -0.1629
 1984TP3      O 5963   0.804   4.398   0.409  0.2669  0.1279 -0.1360
 1984TP3     H1 5964   0.725   4.412   0.463  0.6241  1.1108  0.1433
 1984TP3     H2 5965   0.778   4.330   0.347 -0.2879 -0.7566  1.0102
 1985TP3      O 5966   0.838   4.975   5.435 -0.2606 -0.0488 -0.4515
 1985TP3     H1 5967   0.915   4.928   5.402 -0.2635  0.0458 -0.5935
 1985TP3     H2 5968   0.846   5.062   5.398  0.8546  0.7219  1.4548
 1986TP3      O 5969   1.317   5.311   4.581  0.3384 -0.8127  0.3305
 1986TP3     H1 5970   1.298   5.403   4.597  1.7313 -0.4392  0.0285
 1986TP3     H2 5971   1.246   5.263   4.624 -0.8848  0.4147 -0.2390
 1987TP3      O 5972   0.518   5.538   4.955  0.2980 -0.9038  0.2638
 1987TP3     H1 5973   0.473   5.454   4.961  0.2116 -0.9274 -0.5672
 1987TP3     H2 5974   0.523   5.556   4.861 -0.4473  0.4248  0.4523
 1988TP3      O 5975   1.113   5.172   5.145  0.6238  0.0120 -0.7753
 1988TP3     H1 5976   1.124   5.265   5.121 -1.2870  0.2870 -0.7011
 1988TP3     H2 5977   1.119   5.171   5.240  1.3111 -0.0606 -0.8118
 1989TP3      O 5978   1.056   4.320   2.905 -0.3242  1.2496 -0.6762
 1989TP3     H1 5979   1.108   4.333   2.985 -0.4205 -1.6345 -0.0247
 1989TP3     H2 5980   0.976   4.276   2.935 -0.7891  0.9460 -2.2480
 1990TP3      O 5981   2.544   4.973   4.652 -0.4693  0.0860 -0.6931
 1990TP3     H1 5982   2.577   4.889   4.618 -0.4595 -1.0497  1.8707
 1990TP3     H2 5983   2.459   4.952   4.690  0.0294  0.9624  0.9970
 1991TP3      O 5984   6.033   5.821   4.642  0.3690 -0.2597 -0.0506
 1991TP3     H1 5985   5.962   5.850   4.585  0.6197  0.8870  0.2057
 1991TP3     H2 5986   5.990   5.800   4.725  0.2646  0.0090 -0.0351
 1992TP3      O 5987   5.893   5.130   4.474 -0.1135 -0.1418 -0.2556
 1992TP3     H1 5988   5.917   5.142   4.566  0.8231  0.1211 -0.5169
 1992TP3     H2 5989   5.973   5.097   4.433 -0.9887 -1.8361 -0.6813
 1993TP3      O 5990   1.507   0.308   5.433  0.3417 -0.4826  0.8345
 1993TP3     H1 5991   1.499   0.398   5.463 -1.3794 -1.0458  2.2107
 1993TP3     H2 5992   1.562   0.266   5.499  0.4526 -0.6449  0.6395
 1994TP3      O 5993   1.157   4.478   4.785 -0.2088  0.5228  0.2287
 1994TP3     H1 5994   1.194   4.547   4.730 -1.2543  0.4439 -0.6175
 1994TP3     H2 5995   1.212   4.402   4.768  0.4804  0.9392  0.5704
 1995TP3      O 5996   0.056   3.847   4.067 -0.5606  0.4026  0.0166
 1995TP3     H1 5997   0.082   3.933   4.100 -2.8920  0.5604  1.6720
 1995TP3     H2 5998   0.039   3.861   3.974  3.8999  0.4878 -1.0010
 1996TP3      O 5999   2.530   4.767   4.974 -1.0491  0.3695 -0.2162
 1996TP3     H1 6000   2.591   4.832   5.010  0.1638 -1.4939  1.3185
 1996TP3     H2 6001   2.474   4.817   4.915  0.1149  2.7040  0.5169
 1997TP3      O 6002   0.208   3.788   4.704  0.0799  0.2335 -0.4869
 1997TP3     H1 6003   0.196   3.855   4.772  0.3401  0.8274 -1.0151
 1997TP3     H2 6004   0.291   3.747   4.725 -1.4528 -2.0427  1.6117
 1998TP3      O 6005   0.891   0.301   4.682  0.4759  0.0794  0.0333
 1998TP3     H1 6006   0.821   0.359   4.713  0.9190  0.3385  0.5659
 1998TP3     H2 6007   0.858   0.265   4.600 -0.3215  0.1358  0.3183
 1999TP3      O 6008   1.660   3.881   5.245  0.2318 -0.6333  0.1996
 1999TP3     H1 6009   1.741   3.853   5.202 -0.1865 -0.7568 -0.5225
 1999TP3     H2 6010   1.673   3.860   5.337  1.8314  1.1911  0.4371
 2000TP3      O 6011   5.703   4.237   5.483 -0.1106  0.0361 -0.5040
 2000TP3     H1 6012   5.646   4.161   5.495  0.9874 -0.6320  0.6777
 2000TP3     H2 6013   5.737   4.228   5.394  1.7789 -2.1663  0.3446
 2001TP3      O 6014   5.955   5.189   4.731 -0.1765  0.4613 -0.1077
 2001TP3     H1 6015   5.991   5.143   4.807  0.5536  1.1856 -0.0029
 2001TP3     H2 6016   5.874   5.228   4.764 -0.6254 -0.4424 -0.1067
 2002TP3      O 6017   0.200   5.811   5.559 -0.1996  0.6290  0.6513
 2002TP3     H1 6018   0.149   5.856   5.627 -1.8725  0.1365 -0.2206
 2002TP3     H2 6019   0.138   5.797   5.488  0.5403 -2.0063  0.4186
 2003TP3      O 6020   1.208   4.375   3.901  0.6955  0.3518 -0.1373
 2003TP3     H1 6021   1.233   4.306   3.839 -1.3028  0.0705 -0.7028
 2003TP3     H2 6022   1.225   4.457   3.854  0.0240  0.1553 -0.7465
 2004TP3      O 6023   1.087   4.187   4.260 -0.4401  0.1937 -0.1092
 2004TP3     H1 6024   1.180   4.207   4.267 -0.3848  0.4636 -1.3642
 2004TP3     H2 6025   1.083   4.092   4.252  0.0190  0.3172 -3.1251
 2005TP3      O 6026   0.332   4.915   4.299 -0.0336 -0.5467  0.1096
 2005TP3     H1 6027   0.294   4.860   4.368 -1.4710 -0.0391 -0.2390
 2005TP3     H2 6028   0.345   4.855   4.225  0.7215 -0.9122  0.5214
 2006TP3      O 6029   0.153   5.377   4.664  0.2235 -0.1389 -0.0391
 2006TP3     H1 6030   0.072   5.326   4.667  0.3248 -0.2829  0.4569
 2006TP3     H2 6031   0.170   5.391   4.571 -0.1191 -0.5137 -0.1595
 2007TP3      O 6032   1.641   5.725   3.870  0.9098  0.3090 -0.3955
 2007TP3     H1 6033   1.715   5.714   3.929 -0.1929 -0.3561  0.9275
 2007TP3     H2 6034   1.605   5.637   3.859 -1.2359  0.8729  1.1804
 2008TP3      O 6035   5.500   4.691   5.621  0.5702 -0.5063 -0.8043
 2008TP3     H1 6036   5.522   4.616   5.565 -0.7544 -0.6114 -1.2057
 2008TP3     H2 6037   5.455   4.653   5.696 -0.9170 -0.0650 -1.4394
 2009TP3      O 6038   1.632   4.047   0.283  0.5222 -0.3294 -0.2905
 2009TP3     H1 6039   1.658   4.123   0.336 -0.0328 -0.8501  0.7705
 2009TP3     H2 6040   1.543   4.027   0.312 -0.3148  0.1374 -2.3685
 2010TP3      O 6041   5.976   5.277   1.175 -0.7338 -0.2919  0.3930
 2010TP3     H1 6042   6.028   5.288   1.095 -1.0033  0.2185  0.2867
 2010TP3     H2 6043   5.889   5.309   1.152 -0.4345  1.2911  1.3265
 2011TP3      O 6044   0.868   5.120   0.215  0.1235 -0.2224  0.1430
 2011TP3     H1 6045   0.781   5.142   0.184  0.4503 -0.3686 -0.9139
 2011TP3     H2 6046   0.925   5.187   0.178  0.7203 -1.1845 -0.7491
 2012TP3      O 6047   1.733   5.702   0.987  0.5234 -0.0959 -0.0109
 2012TP3     H1 6048   1.688   5.780   0.954  1.1601 -0.1254 -0.9610
 2012TP3     H2 6049   1.746   5.720   1.080  2.6974  1.9609 -0.6126
 2013TP3      O 6050   0.277   4.937   5.227  0.2354  0.3952  0.7196
 2013TP3     H1 6051   0.321   4.881   5.291  1.1234 -0.8482 -0.9047
 2013TP3     H2 6052   0.297   4.897   5.142 -3.9301 -0.2176 -0.1896
 2014TP3      O 6053   2.659   3.901   1.050  0.5935 -0.4444  0.5989
 2014TP3     H1 6054   2.676   3.957   1.126 -0.4685 -0.6665  1.0156
 2014TP3     H2 6055   2.745   3.890   1.009  0.7549  1.9589  0.1537
 2015TP3      O 6056   1.565   5.285   0.051  0.0424  0.0717  0.3211
 2015TP3     H1 6057   1.490   5.238   0.087 -0.2673  1.5869  1.7799
 2015TP3     H2 6058   1.635   5.271   0.115  1.4816 -2.4097 -1.6549
 2016TP3      O 6059   0.636   5.201   4.888 -0.0180 -0.0538  0.2210
 2016TP3     H1 6060   0.585   5.249   4.823  0.7242 -0.1773 -0.4860
 2016TP3     H2 6061   0.695   5.266   4.926 -0.7646  0.1130  1.1147
 2017TP3      O 6062   0.684   4.754   5.354 -1.0690 -0.4230  0.1778
 2017TP3     H1 6063   0.728   4.735   5.271 -1.6861  0.4274 -0.3634
 2017TP3     H2 6064   0.722   4.838   5.382 -0.9417 -0.6548  0.7096
 2018TP3      O 6065   0.532   3.806   0.337  0.8610  0.8070  0.3822
 2018TP3     H1 6066   0.465   3.774   0.397  0.6884  1.1291  0.3624
 2018TP3     H2 6067   0.505   3.895   0.316  0.2813  0.3126 -1.0785
 2019TP3      O 6068   0.633   5.219   0.124 -1.2141 -0.0507 -0.4498
 2019TP3     H1 6069   0.581   5.244   0.200  1.7114  1.4441  1.2491
 2019TP3     H2 6070   0.600   5.276   0.054 -2.4500  0.1800  0.2790
 2020TP3      O 6071   1.059   0.144   4.843  0.2587  0.2788 -0.1416
 2020TP3     H1 6072   1.036   0.143   4.936  1.8509  1.6580  0.3331
 2020TP3     H2 6073   0.990   0.195   4.802 -0.0115  0.4041  0.4485
 2021TP3      O 6074   0.604   4.103   0.477  0.4203  0.1040 -0.4455
 2021TP3     H1 6075   0.510   4.123   0.473  0.6185  1.3482  0.3632
 2021TP3     H2 6076   0.634   4.149   0.556  2.1040  1.4991 -1.8126
 2022TP3      O 6077   1.449   0.011   0.778  0.1532  0.4238 -0.3032
 2022TP3     H1 6078   1.518  -0.041   0.820 -1.7049 -0.4574  1.8677
 2022TP3     H2 6079   1.494   0.091   0.749  1.6556  1.2843  3.6987
 2023TP3      O 6080   1.249   3.038   5.055  0.2374  0.2464 -0.7214
 2023TP3     H1 6081   1.293   3.080   4.982 -0.2244 -0.5155 -1.4568
 2023TP3     H2 6082   1.220   2.953   5.021  1.9119 -1.0955  0.9631
 2024TP3      O 6083   1.197   5.480   5.971  0.3672  0.2146  0.6261
 2024TP3     H1 6084   1.141   5.551   5.940  0.0832  0.3261  1.3760
 2024TP3     H2 6085   1.281   5.494   5.926  0.4705  1.3206  1.1374
 2025TP3      O 6086   0.469   4.148   5.997 -0.5425  0.2564 -0.1836
 2025TP3     H1 6087   0.561   4.150   5.968 -1.1655 -0.1329 -2.3862
 2025TP3     H2 6088   0.435   4.234   5.971 -0.9711  0.1327 -0.0194
 2026TP3      O 6089   0.063   4.375   5.142 -0.0310  0.4801 -0.1918
 2026TP3     H1 6090   0.110   4.457   5.128 -0.2981  0.7588  0.4799
 2026TP3     H2 6091   0.004   4.368   5.067  0.6959  0.3981 -0.7625
 2027TP3      O 6092   2.330   4.912   5.682 -0.2098  0.2183 -0.4499
 2027TP3     H1 6093   2.252   4.951   5.721 -0.5008 -0.8222  0.0355
 2027TP3     H2 6094   2.393   4.909   5.754  0.8612  2.4794 -1.1992
 2028TP3      O 6095   0.642   0.101   5.159  0.3371 -0.0949  0.6191
 2028TP3     H1 6096   0.607   0.106   5.248 -0.8463 -0.1591  0.1840
 2028TP3     H2 6097   0.574   0.056   5.109  0.6092  0.6720 -0.4985
 2029TP3      O 6098   1.341   4.796   0.568 -0.7057  0.8469  0.3197
 2029TP3     H1 6099   1.325   4.716   0.519 -1.5149  0.6762  0.8354
 2029TP3     H2 6100   1.304   4.866   0.514  2.3153  1.2856 -1.4147
 2030TP3      O 6101   1.573   4.821   0.698  0.4344  0.0271  0.5291
 2030TP3     H1 6102   1.487   4.806   0.659  1.3878 -0.0256 -1.7133
 2030TP3     H2 6103   1.634   4.771   0.643  2.1139  1.6011  0.8420
 2031TP3      O 6104   0.332   4.342   4.826 -0.1341 -0.5838  0.5445
 2031TP3     H1 6105   0.372   4.426   4.849  3.0850 -1.6210 -0.6799
 2031TP3     H2 6106   0.365   4.281   4.892 -0.6633 -1.2881  0.1686
 2032TP3      O 6107   6.003   4.601   1.143  0.7668 -0.3133  0.2368
 2032TP3     H1 6108   5.951   4.630   1.218  0.5822 -1.2204  0.4770
 2032TP3     H2 6109   5.949   4.532   1.103  0.6132  0.5341 -1.0603
 2033TP3      O 6110   1.198   4.756   5.953  0.3512  0.5090  0.5420
 2033TP3     H1 6111   1.137   4.830   5.943 -0.5045 -0.2782 -0.2125
 2033TP3     H2 6112   1.169   4.692   5.888  2.1876  0.2323 -0.0591
 2034TP3      O 6113   5.745   2.360   0.400  0.5189  0.1689  0.7081
 2034TP3     H1 6114   5.711   2.276   0.430 -0.0601  0.8831  2.1165
 2034TP3     H2 6115   5.816   2.381   0.461  2.3825 -0.4393 -1.1103
 2035TP3      O 6116   1.482   5.045   0.314  0.6181  0.3472  0.0983
 2035TP3     H1 6117   1.427   4.998   0.252  0.6936 -0.4318  0.6158
 2035TP3     H2 6118   1.434   5.127   0.331 -0.5928 -0.4902  0.8495
 2036TP3      O 6119   0.789   3.920   4.535  0.7605 -0.0503 -0.2249
 2036TP3     H1 6120   0.785   3.916   4.440 -2.7956  0.4603 -0.2420
 2036TP3     H2 6121   0.705   3.885   4.564  1.8994 -0.6384  2.8091
 2037TP3      O 6122   5.261   4.096   4.878  0.0329 -0.1094  0.0943
 2037TP3     H1 6123   5.166   4.090   4.876 -0.0957  0.3318  2.5884
 2037TP3     H2 6124   5.286   4.057   4.962  2.1394 -0.9890 -0.8603
 2038TP3      O 6125   0.443   3.251   5.440  0.2335  0.0677  0.6512
 2038TP3     H1 6126   0.407   3.266   5.527 -0.4010 -1.0275  0.5884
 2038TP3     H2 6127   0.506   3.322   5.428 -2.3615  2.4893  0.4720
 2039TP3      O 6128   5.956   4.723   5.499 -0.7310 -0.2993 -0.1964
 2039TP3     H1 6129   5.892   4.774   5.448  0.8010 -0.6166 -2.5998
 2039TP3     H2 6130   6.021   4.787   5.525 -0.6107 -0.4352 -0.1648
 2040TP3      O 6131   1.894   3.594   0.232  0.3299 -0.1126  0.2454
 2040TP3     H1 6132   1.876   3.687   0.237  0.8863  0.0724 -0.8724
 2040TP3     H2 6133   1.854   3.566   0.150  0.0659 -0.8860  0.6283
 2041TP3      O 6134   5.331   4.852   5.225  0.1957 -0.1546  0.5530
 2041TP3     H1 6135   5.380   4.780   5.264  1.2059 -0.0545 -0.4805
 2041TP3     H2 6136   5.251   4.811   5.192  0.8282 -0.8353 -0.1587
 2042TP3      O 6137   1.649   0.199   5.681  0.3475 -0.3027 -0.1165
 2042TP3     H1 6138   1.726   0.253   5.699  1.3624 -1.5869 -0.4119
 2042TP3     H2 6139   1.634   0.152   5.763  0.7370 -1.0585 -0.4661
 2043TP3      O 6140   1.069   4.455   0.296  0.4883  0.0875  0.5381
 2043TP3     H1 6141   0.994   4.480   0.241  1.4329  0.4576 -0.6221
 2043TP3     H2 6142   1.030   4.412   0.371 -0.9357  0.7908  0.2412
 2044TP3      O 6143   1.254   5.437   5.175  0.0534  0.8751 -0.2295
 2044TP3     H1 6144   1.345   5.465   5.176 -0.0175  1.2128 -1.5276
 2044TP3     H2 6145   1.229   5.440   5.083 -0.8344 -0.6828 -0.0616
 2045TP3      O 6146   1.538   5.476   0.726 -0.0565 -0.1130  0.8965
 2045TP3     H1 6147   1.559   5.529   0.649 -1.0312 -0.5565  0.2909
 2045TP3     H2 6148   1.456   5.432   0.702 -0.3207 -0.3467  2.1524
 2046TP3      O 6149   0.702   5.152   5.752  0.1427  0.5016 -0.3770
 2046TP3     H1 6150   0.658   5.149   5.667  1.0889  0.7326 -0.8917
 2046TP3     H2 6151   0.715   5.060   5.775 -2.0115  0.3750  0.5640
 2047TP3      O 6152   5.895   4.321   0.012  0.1841  0.3330  0.6636
 2047TP3     H1 6153   5.956   4.251   0.036  0.9886  1.0136  0.6330
 2047TP3     H2 6154   5.943   4.402   0.030 -0.0798  0.8751 -0.9612
 2048TP3      O 6155   1.177   4.942   0.391 -0.3873  0.3412  0.7619
 2048TP3     H1 6156   1.104   4.880   0.385 -1.1745  1.3666 -1.1079
 2048TP3     H2 6157   1.244   4.906   0.332 -1.0223  1.4370 -0.6784
 2049TP3      O 6158   0.825   0.399   0.421  0.2140  0.0199 -0.3037
 2049TP3     H1 6159   0.748   0.435   0.376  0.7791 -0.5848 -1.8222
 2049TP3     H2 6160   0.801   0.401   0.514 -0.5933  2.2982 -0.4831
 2050TP3      O 6161   0.818   3.156   5.967 -0.1736 -0.1944 -0.0402
 2050TP3     H1 6162   0.746   3.196   5.917  0.3616  0.0673 -0.6075
 2050TP3     H2 6163   0.775   3.117   6.043 -0.6382  2.0390  0.9158
 2051TP3      O 6164   0.567   5.091   5.194  0.5986 -0.5388  0.4618
 2051TP3     H1 6165   0.575   5.184   5.216  0.3070  0.2745 -2.4236
 2051TP3     H2 6166   0.478   5.083   5.158  1.2131 -1.5017 -0.9255
 2052TP3      O 6167   1.015   4.097   5.298  0.1422 -0.2342  0.1274
 2052TP3     H1 6168   0.981   4.121   5.212  0.8705  0.4772  0.0291
 2052TP3     H2 6169   1.079   4.028   5.281 -0.5463 -0.9094  0.2219
 2053TP3      O 6170   1.567   4.857   5.516 -0.3905 -0.0437  0.4047
 2053TP3     H1 6171   1.636   4.805   5.558 -0.2896 -1.9245 -1.8774
 2053TP3     H2 6172   1.609   4.939   5.493  0.2613 -0.0306  1.5806
 2054TP3      O 6173   4.680   5.392   0.116  0.3243  0.0778  0.4693
 2054TP3     H1 6174   4.672   5.325   0.048  0.2706 -1.2062  1.6793
 2054TP3     H2 6175   4.596   5.438   0.115  0.3039  0.0356 -0.2779
 2055TP3      O 6176   1.707   4.387   1.027 -0.9499  0.1613  0.1691
 2055TP3     H1 6177   1.627   4.385   1.078  0.0965  1.3463  1.9562
 2055TP3     H2 6178   1.753   4.307   1.052  0.1496  1.3401  2.2249
 2056TP3      O 6179   0.036   5.739   0.457 -0.3158  0.0623  0.0152
 2056TP3     H1 6180   0.052   5.796   0.533  0.0301 -0.1353  0.0954
 2056TP3     H2 6181  -0.057   5.748   0.439 -0.5977 -0.5787  1.0392
 2057TP3      O 6182   5.769   5.798   0.365  0.3916 -0.4900 -0.1020
 2057TP3     H1 6183   5.761   5.761   0.277 -0.0456  1.1080 -0.7688
 2057TP3     H2 6184   5.770   5.892   0.351 -1.9328 -0.0978  1.7645
 2058TP3      O 6185   0.255   1.240   1.607 -0.2650  0.2208  0.0368
 2058TP3     H1 6186   0.245   1.333   1.585  0.7289  0.1076 -0.9728
 2058TP3     H2 6187   0.264   1.239   1.702 -2.4204  0.9400  0.3011
 2059TP3      O 6188   6.003   5.568   0.962 -0.4216  0.3799  0.1793
 2059TP3     H1 6189   5.916   5.549   0.925 -1.0090  1.4830  0.9350
 2059TP3     H2 6190   5.984   5.604   1.049  0.8708 -1.0713  1.1191
 2060TP3      O 6191   1.783   5.420   1.325 -0.1147 -0.0849  0.1143
 2060TP3     H1 6192   1.835   5.357   1.276 -0.3738  1.3204 -2.1252
 2060TP3     H2 6193   1.709   5.369   1.358  0.7705 -1.3593  0.1991
 2061TP3      O 6194   5.939   5.166   5.219 -0.8057 -0.6860 -0.7506
 2061TP3     H1 6195   5.927   5.099   5.287 -0.8554 -0.1782 -0.2544
 2061TP3     H2 6196   5.853   5.173   5.178 -0.6694 -1.3012 -1.1666
 2062TP3      O 6197   5.978   5.234   2.478  0.3044 -0.2523  0.2421
 2062TP3     H1 6198   5.981   5.199   2.567  1.9626  0.7372  0.6213
 2062TP3     H2 6199   5.935   5.166   2.426 -1.3914 -0.5323  1.9189
 2063TP3      O 6200   0.892   4.574   0.909 -0.5620  0.5459 -0.3168
 2063TP3     H1 6201   0.976   4.616   0.892  0.7483 -1.4132  0.8894
 2063TP3     H2 6202   0.872   4.526   0.829  0.6853 -0.8456  0.1631
 2064TP3      O 6203   1.105   5.440   1.887  0.0033  0.4069 -0.3051
 2064TP3     H1 6204   1.016   5.477   1.889 -0.4696 -0.7235  0.2820
 2064TP3     H2 6205   1.162   5.516   1.903 -0.8573  1.1174 -0.5017
 2065TP3      O 6206   0.164   5.750   0.860 -0.0067 -0.3697 -0.5176
 2065TP3     H1 6207   0.254   5.719   0.845  0.3737  1.0895 -1.4449
 2065TP3     H2 6208   0.120   5.676   0.901  1.3860 -1.4293 -0.8551
 2066TP3      O 6209   1.346   5.580   0.207  0.0028 -0.1928  0.2753
 2066TP3     H1 6210   1.280   5.550   0.270 -0.4496 -0.9362 -0.5189
 2066TP3     H2 6211   1.329   5.527   0.129  1.6194 -0.4626  0.0839
 2067TP3      O 6212   0.966   5.101   0.607 -0.2427 -0.1990  0.4768
 2067TP3     H1 6213   1.030   5.108   0.678 -0.1359 -0.1844  0.3789
 2067TP3     H2 6214   0.983   5.016   0.567 -0.1523 -0.1088  0.3232
 2068TP3      O 6215   0.845   5.951   5.864 -0.6766 -0.1792  0.0144
 2068TP3     H1 6216   0.779   5.953   5.795  0.9961 -0.2533 -1.6584
 2068TP3     H2 6217   0.891   6.035   5.856 -0.8930  0.1138  1.5159
 2069TP3      O 6218   0.986   0.217   2.289  0.2508  0.5879 -0.4302
 2069TP3     H1 6219   0.997   0.254   2.376 -2.7974 -1.9540  1.2739
 2069TP3     H2 6220   0.893   0.229   2.269  0.2955 -1.2326 -2.1231
 2070TP3      O 6221   1.228   0.479   2.162  0.2826 -0.2217 -0.0700
 2070TP3     H1 6222   1.197   0.433   2.240  0.7749  1.3345  1.1014
 2070TP3     H2 6223   1.160   0.544   2.143  0.5341 -0.0609 -0.4452
 2071TP3      O 6224   5.782   0.035   5.967 -0.0153  0.6172  0.3589
 2071TP3     H1 6225   5.794  -0.033   5.900  0.4110  1.5911 -0.5825
 2071TP3     H2 6226   5.862   0.088   5.961  0.6445 -0.0160  2.5479
 2072TP3      O 6227   0.902   5.699   5.645 -0.4487  0.0448 -0.2357
 2072TP3     H1 6228   0.917   5.612   5.609  0.4738  0.5729 -1.1815
 2072TP3     H2 6229   0.950   5.758   5.587 -1.8892  1.3039 -0.2236
 2073TP3      O 6230   0.371   5.979   1.921 -0.9125  0.4927  0.0444
 2073TP3     H1 6231   0.337   5.999   1.834  0.2016 -3.1369 -1.4159
 2073TP3     H2 6232   0.319   5.904   1.950  0.8460 -0.3923  1.0558
 2074TP3      O 6233   0.420   5.280   1.242 -0.1949  0.1146  0.5087
 2074TP3     H1 6234   0.372   5.210   1.198  0.7866 -0.4661  0.3278
 2074TP3     H2 6235   0.416   5.354   1.182 -0.8895  0.0865  0.5152
 2075TP3      O 6236   0.371   0.283   5.937 -0.0240 -0.0195 -0.3725
 2075TP3     H1 6237   0.410   0.370   5.934  0.0587 -0.0635 -0.6322
 2075TP3     H2 6238   0.328   0.274   5.851 -0.4292 -0.0504 -0.1716
 2076TP3      O 6239   0.442   0.417   1.441  0.1815 -0.0484  0.5331
 2076TP3     H1 6240   0.407   0.469   1.514 -0.1205  0.8235 -0.2116
 2076TP3     H2 6241   0.452   0.480   1.370  0.2889 -0.9271 -0.2437
 2077TP3      O 6242   1.257   4.478   1.181 -0.7889 -0.3734 -0.2471
 2077TP3     H1 6243   1.166   4.454   1.166 -1.3155  0.4185  1.3900
 2077TP3     H2 6244   1.254   4.572   1.202  0.7487  0.3782 -2.8392
 2078TP3      O 6245   0.279   4.656   2.771 -0.6414  0.0718 -0.0623
 2078TP3     H1 6246   0.270   4.586   2.705  2.2923  1.0033 -1.6715
 2078TP3     H2 6247   0.248   4.735   2.726 -0.1608  0.4506  0.2665
 2079TP3      O 6248   0.591   5.575   0.108  0.1977 -0.3056 -0.5276
 2079TP3     H1 6249   0.507   5.545   0.140  0.1476  0.5636  0.1942
 2079TP3     H2 6250   0.577   5.668   0.087  0.6660 -0.4374 -1.5224
 2080TP3      O 6251   1.024   1.335   0.315 -0.0346  0.1189 -0.3117
 2080TP3     H1 6252   1.110   1.349   0.356  0.8915  1.1554 -2.4324
 2080TP3     H2 6253   0.985   1.263   0.365  1.4563  0.5473  1.6064
 2081TP3      O 6254   0.313   5.111   0.471 -0.4122  0.0711 -0.1351
 2081TP3     H1 6255   0.236   5.069   0.510  0.2936 -1.1235  0.0275
 2081TP3     H2 6256   0.378   5.041   0.466  0.7131  1.0880 -0.1428
 2082TP3      O 6257   2.501   4.535   0.790  0.3259 -0.0978 -0.2441
 2082TP3     H1 6258   2.584   4.572   0.819 -0.2075  0.0586  1.1625
 2082TP3     H2 6259   2.484   4.462   0.850 -1.0371  0.5104  0.1673
 2083TP3      O 6260   0.810   0.337   1.274  0.4818  0.3617  0.4265
 2083TP3     H1 6261   0.850   0.391   1.343  1.2566 -0.2397  0.4573
 2083TP3     H2 6262   0.723   0.377   1.260  0.9081  1.4145  0.6738
 2084TP3      O 6263   0.744   5.930   0.668 -0.3232 -0.2586 -0.0922
 2084TP3     H1 6264   0.821   5.962   0.621 -0.2426  0.3541  0.4439
 2084TP3     H2 6265   0.773   5.921   0.759 -0.3046 -1.9983 -0.2235
 2085TP3      O 6266   0.784   0.826   0.975 -0.3028  0.2628  0.5389
 2085TP3     H1 6267   0.802   0.758   0.910  1.6329  0.1700  1.1146
 2085TP3     H2 6268   0.829   0.904   0.941 -0.1140  0.4793  1.2753
 2086TP3      O 6269   0.370   5.997   0.324 -0.1868 -0.6631 -0.6913
 2086TP3     H1 6270   0.440   5.943   0.360  1.4856 -0.1500 -3.0362
 2086TP3     H2 6271   0.305   5.934   0.292 -0.8668 -1.1339  1.4228
 2087TP3      O 6272   0.147   5.441   5.474 -0.0915  0.1619  0.6180
 2087TP3     H1 6273   0.068   5.460   5.524 -0.5854  2.0113 -0.7748
 2087TP3     H2 6274   0.218   5.480   5.526 -0.4399  0.8980  0.5588
 2088TP3      O 6275   1.572   5.136   0.615  0.0057 -0.5189  0.0120
 2088TP3     H1 6276   1.635   5.203   0.587  0.0630 -0.7189 -0.3396
 2088TP3     H2 6277   1.626   5.058   0.632 -0.0269 -0.3975  0.6905
 2089TP3      O 6278   1.854   5.979   0.548 -0.4132  0.0490  0.1137
 2089TP3     H1 6279   1.927   6.003   0.491 -0.3051 -2.2762 -0.8041
 2089TP3     H2 6280   1.886   5.904   0.598 -1.5198  0.2292  1.1288
 2090TP3      O 6281   5.661   1.143   1.349  0.2366  0.0961 -0.2180
 2090TP3     H1 6282   5.574   1.182   1.358  1.7397  4.0631 -0.8749
 2090TP3     H2 6283   5.703   1.158   1.434  0.2635 -2.1982  0.2587
 2091TP3      O 6284   0.132   5.485   2.679  0.0808  0.3851 -0.0547
 2091TP3     H1 6285   0.173   5.399   2.674 -0.9728 -0.1345  0.0399
 2091TP3     H2 6286   0.041   5.467   2.702 -0.3737  1.4620 -0.9286
 2092TP3      O 6287   1.365   5.758   0.448 -0.4248 -0.3508  0.1736
 2092TP3     H1 6288   1.445   5.743   0.498 -0.3378 -0.4704 -0.0032
 2092TP3     H2 6289   1.366   5.692   0.379 -1.9934 -2.0831  1.7273
 2093TP3      O 6290   5.700   5.773   0.087  0.9790 -0.3501 -0.1032
 2093TP3     H1 6291   5.612   5.758   0.122  0.8457 -0.6093 -0.5335
 2093TP3     H2 6292   5.704   5.717   0.009  1.0952  0.5595 -0.7652
 2094TP3      O 6293   1.783   0.024   5.944 -0.4688  0.0164 -0.1103
 2094TP3     H1 6294   1.696  -0.016   5.941  0.5380 -2.8453  2.8055
 2094TP3     H2 6295   1.777   0.090   6.013 -0.1820 -0.7326  0.6473
 2095TP3      O 6296   1.395   0.394   1.674  0.1754 -0.5528 -0.2994
 2095TP3     H1 6297   1.338   0.341   1.619 -0.7193  0.4720 -0.4048
 2095TP3     H2 6298   1.349   0.401   1.757  0.0293  0.4470 -0.4483
 2096TP3      O 6299   2.607   0.345   1.527  0.0881 -0.4324  0.4123
 2096TP3     H1 6300   2.523   0.346   1.573 -0.3706 -1.6643 -0.3465
 2096TP3     H2 6301   2.662   0.287   1.580  0.1956 -0.3028  0.4445
 2097TP3      O 6302   1.027   0.602   0.406  0.4436 -0.3381 -0.3380
 2097TP3     H1 6303   1.041   0.608   0.500  1.0284  1.5363 -0.5151
 2097TP3     H2 6304   0.972   0.524   0.395  1.6672 -1.5015  1.3858
 2098TP3      O 6305   1.524   4.585   0.896  0.1112  0.0285  0.1780
 2098TP3     H1 6306   1.595   4.521   0.885  1.3279  1.3298  0.2746
 2098TP3     H2 6307   1.539   4.623   0.982 -1.3158 -0.3780  0.6368
 2099TP3      O 6308   1.276   5.107   0.707 -0.3102  0.1325  0.3041
 2099TP3     H1 6309   1.266   5.014   0.686 -0.4180  0.3983 -0.9040
 2099TP3     H2 6310   1.352   5.135   0.657  1.1090  0.2130  2.4016
 2100TP3      O 6311   1.467   1.293   2.072 -0.2143 -0.0025  0.6112
 2100TP3     H1 6312   1.532   1.226   2.051 -0.0548  0.7205 -1.3476
 2100TP3     H2 6313   1.507   1.375   2.044 -1.4831  0.6017  0.5251
 2101TP3      O 6314   1.289   5.355   1.254 -0.4376 -0.5293  0.4382
 2101TP3     H1 6315   1.249   5.319   1.174 -0.0907 -1.0415  0.4909
 2101TP3     H2 6316   1.351   5.420   1.221 -1.5154  0.5132  0.3663
 2102TP3      O 6317   0.603   0.761   2.619 -0.6384  0.9967 -0.5214
 2102TP3     H1 6318   0.526   0.734   2.568  1.0924 -2.3143 -1.6424
 2102TP3     H2 6319   0.601   0.705   2.696 -1.8590  4.2763  2.0908
 2103TP3      O 6320   0.176   5.824   2.673 -0.5668  0.0032 -0.7165
 2103TP3     H1 6321   0.188   5.893   2.608 -0.6491  0.2408 -0.4821
 2103TP3     H2 6322   0.200   5.743   2.627 -0.0859  0.2310 -0.8720
 2104TP3      O 6323   1.356   0.310   2.418 -0.4500 -0.8808  0.5292
 2104TP3     H1 6324   1.413   0.356   2.480 -1.1977 -0.2338  0.7629
 2104TP3     H2 6325   1.274   0.360   2.421  0.3986  1.1518 -3.2615
 2105TP3      O 6326   0.979   5.965   2.592 -0.1535  0.1115 -0.3882
 2105TP3     H1 6327   0.969   5.968   2.687  0.7155  1.6107 -0.3048
 2105TP3     H2 6328   0.890   5.953   2.559 -0.4937 -0.1875  0.6088
 2106TP3      O 6329   2.047   5.815   2.690  0.5741 -0.0549  0.0889
 2106TP3     H1 6330   1.965   5.841   2.731  0.2107 -1.9213  0.6294
 2106TP3     H2 6331   2.023   5.792   2.600  0.5518 -0.4122  0.1883
 2107TP3      O 6332   1.405   0.611   3.941 -0.8849  0.3062  0.2338
 2107TP3     H1 6333   1.397   0.517   3.924 -3.5727  0.2391  1.1937
 2107TP3     H2 6334   1.455   0.616   4.023  1.1988 -0.0968 -0.9609
 2108TP3      O 6335   0.368   0.075   2.547  0.0400  0.0794 -0.0387
 2108TP3     H1 6336   0.400  -0.014   2.529 -1.2915 -0.4068 -0.1662
 2108TP3     H2 6337   0.418   0.131   2.488  1.4359 -0.4855  0.5829
 2109TP3      O 6338   0.777   5.308   3.528 -0.7858  0.5296 -1.2504
 2109TP3     H1 6339   0.767   5.214   3.545 -0.9960  1.0086  1.9398
 2109TP3     H2 6340   0.697   5.347   3.562  0.8801  2.1316  1.1508
 2110TP3      O 6341   1.376   5.650   2.465  0.6520  0.1355  0.4559
 2110TP3     H1 6342   1.352   5.733   2.506  0.7344  0.0284  0.7223
 2110TP3     H2 6343   1.325   5.648   2.384  0.7664  0.5158  0.3714
 2111TP3      O 6344   0.914   5.577   1.349 -0.0107  0.0664 -0.1921
 2111TP3     H1 6345   0.908   5.540   1.261 -0.9839 -1.7638  0.5874
 2111TP3     H2 6346   0.957   5.509   1.401  1.3609  1.4691  0.5924
 2112TP3      O 6347   0.378   5.569   3.221  0.0723 -0.7193  0.3823
 2112TP3     H1 6348   0.350   5.644   3.274  0.8690  0.7751 -1.2252
 2112TP3     H2 6349   0.310   5.560   3.154  0.8426 -0.2981 -0.4791
 2113TP3      O 6350   5.664   5.559   3.053  0.1760  1.1401  0.3579
 2113TP3     H1 6351   5.704   5.611   3.122 -0.7221  0.4636  1.4129
 2113TP3     H2 6352   5.687   5.469   3.074  0.7990  0.9928 -0.8406
 2114TP3      O 6353   1.897   5.263   2.557 -0.3630 -0.1117 -0.4156
 2114TP3     H1 6354   1.919   5.200   2.489  0.4613  1.2678 -1.4695
 2114TP3     H2 6355   1.801   5.264   2.558 -0.3978 -1.6424 -0.0943
 2115TP3      O 6356   1.314   5.064   2.903 -0.2728  0.0382 -0.3699
 2115TP3     H1 6357   1.226   5.101   2.903 -0.2597  0.1129 -1.7186
 2115TP3     H2 6358   1.369   5.133   2.940 -0.8339 -0.2040  0.9680
 2116TP3      O 6359   0.984   5.721   2.431 -0.5636  0.1742 -0.0703
 2116TP3     H1 6360   1.005   5.639   2.476  0.2144 -0.1983 -1.0817
 2116TP3     H2 6361   0.948   5.777   2.500 -0.2917 -0.7054  0.8152
 2117TP3      O 6362   0.797   5.436   2.994 -0.4704 -0.4991  0.1102
 2117TP3     H1 6363   0.718   5.490   2.987  0.7966  1.2699 -1.5470
 2117TP3     H2 6364   0.825   5.445   3.086  0.9858  3.7675 -0.5416
 2118TP3      O 6365   0.092   5.917   3.150 -0.2964 -0.4063  0.2012
 2118TP3     H1 6366   0.042   5.837   3.163 -3.4692  1.1852 -0.9505
 2118TP3     H2 6367   0.098   5.926   3.055  1.5282 -0.1130  0.3219
 2119TP3      O 6368   1.469   0.495   2.590  0.1744 -0.0198 -0.1537
 2119TP3     H1 6369   1.484   0.489   2.684 -2.5458  0.4272  0.4158
 2119TP3     H2 6370   1.503   0.581   2.566 -0.1924  0.3741  0.6923
 2120TP3      O 6371   0.027   4.868   0.814  0.1289  0.0203 -0.0378
 2120TP3     H1 6372   0.014   4.924   0.891  1.2432  1.5889 -0.9232
 2120TP3     H2 6373   0.093   4.804   0.841 -0.3719 -0.2113  0.6613
 2121TP3      O 6374   1.085  -0.026   1.919  0.0347  0.6204 -0.1337
 2121TP3     H1 6375   1.102  -0.019   2.013 -0.9870  0.6380  0.0597
 2121TP3     H2 6376   1.105   0.062   1.886 -0.3343  0.8331  0.1934
 2122TP3      O 6377   0.100   0.120   3.373  1.0170  0.4634  0.2521
 2122TP3     H1 6378   0.116   0.214   3.362 -0.1227  0.6813  0.3376
 2122TP3     H2 6379   0.087   0.087   3.284 -1.4714  0.9629  0.3493
 2123TP3      O 6380   0.754   5.894   3.055 -0.5234 -0.5463 -0.0956
 2123TP3     H1 6381   0.726   5.883   3.146  0.2799  2.7755  0.6856
 2123TP3     H2 6382   0.673   5.886   3.004 -1.7388  1.5055  1.3692
 2124TP3      O 6383   0.133   5.875   1.789  0.3883  0.4481  0.3971
 2124TP3     H1 6384   0.095   5.820   1.858 -0.8502 -0.7038 -1.1449
 2124TP3     H2 6385   0.180   5.814   1.733 -1.3564  0.8256 -1.5871
 2125TP3      O 6386   0.351   0.173   3.104  0.0553 -0.2605  0.7820
 2125TP3     H1 6387   0.370   0.092   3.151 -2.2458 -1.1687  0.2979
 2125TP3     H2 6388   0.378   0.155   3.014  2.4408  0.7047  1.2244
 2126TP3      O 6389   1.347   5.732   3.498 -0.3999  0.3222 -0.0318
 2126TP3     H1 6390   1.427   5.696   3.537  0.0328  2.3418  1.0980
 2126TP3     H2 6391   1.287   5.742   3.572 -2.3925 -2.6222 -1.0777
 2127TP3      O 6392   6.032   5.410   3.193 -0.0096 -0.8850 -0.4080
 2127TP3     H1 6393   6.018   5.501   3.219 -0.4462 -1.1535  0.3422
 2127TP3     H2 6394   5.944   5.374   3.181 -0.0170 -1.9778  2.1472
 2128TP3      O 6395   0.466   5.159   3.449 -0.3324  0.0636  0.2559
 2128TP3     H1 6396   0.479   5.230   3.511 -0.0714  0.4201 -0.1996
 2128TP3     H2 6397   0.446   5.203   3.366 -0.4459 -0.3981  0.0334
 2129TP3      O 6398   0.858   1.134   1.815  0.2238  0.6511 -0.3323
 2129TP3     H1 6399   0.837   1.227   1.807 -3.4281  0.0694  0.9407
 2129TP3     H2 6400   0.846   1.100   1.726  0.8071  1.2212 -0.6425
 2130TP3      O 6401   5.876   5.443   2.815 -0.3500 -0.2349  0.6429
 2130TP3     H1 6402   5.862   5.517   2.874  0.4271 -2.0388  3.2514
 2130TP3     H2 6403   5.789   5.422   2.782 -0.6338  1.5425  0.1605
 2131TP3      O 6404   1.396   5.890   1.865  0.3352  0.1802 -0.3763
 2131TP3     H1 6405   1.382   5.927   1.778  1.3546  1.3008 -0.0942
 2131TP3     H2 6406   1.397   5.966   1.924  0.7410 -0.4468  0.4596
 2132TP3      O 6407   0.530   5.851   2.852  0.0113 -0.3575 -0.0613
 2132TP3     H1 6408   0.517   5.945   2.843 -0.2101 -0.5478 -2.2134
 2132TP3     H2 6409   0.446   5.818   2.886  0.2115  0.2341  1.0500
 2133TP3      O 6410   0.604   4.720   3.225 -0.5487 -0.0033  0.3450
 2133TP3     H1 6411   0.544   4.721   3.150 -2.0414 -1.2347  1.4393
 2133TP3     H2 6412   0.596   4.631   3.260  1.0464  0.1771  1.2543
 2134TP3      O 6413   0.716   5.966   2.467 -0.0116  0.8744  0.3595
 2134TP3     H1 6414   0.649   5.910   2.506  1.0474 -1.3686 -0.8329
 2134TP3     H2 6415   0.686   5.981   2.378  2.4203 -3.0494 -1.4084
 2135TP3      O 6416   0.796   5.736   2.184 -0.3624  0.2431 -0.3246
 2135TP3     H1 6417   0.794   5.832   2.187 -0.4512  0.2329  1.4681
 2135TP3     H2 6418   0.821   5.711   2.273 -1.4488 -1.4289 -0.4571
 2136TP3      O 6419   1.317   5.634   1.872 -0.3410  0.7386  0.4753
 2136TP3     H1 6420   1.334   5.727   1.889  1.1692  0.5940 -0.1162
 2136TP3     H2 6421   1.316   5.628   1.776 -3.0150  0.5561  0.4458
 2137TP3      O 6422   2.346   5.765   2.641 -0.6702  0.2935 -0.3607
 2137TP3     H1 6423   2.253   5.775   2.661 -0.8399 -1.1031 -0.3339
 2137TP3     H2 6424   2.379   5.854   2.633 -1.2628  0.9281  3.0358
 2138TP3      O 6425   1.230   0.324   2.739  0.5978 -0.5451 -0.4396
 2138TP3     H1 6426   1.267   0.396   2.688 -3.1018  1.4362 -0.6373
 2138TP3     H2 6427   1.263   0.338   2.827  0.9386  0.6164 -0.7328
 2139TP3      O 6428   0.544   0.759   3.818 -0.0758  0.4110 -0.6946
 2139TP3     H1 6429   0.561   0.777   3.911  0.6128 -0.5322 -0.6226
 2139TP3     H2 6430   0.501   0.838   3.786 -1.1131  0.4202  0.6361
 2140TP3      O 6431   0.060   0.357   1.760 -0.1200 -0.6268  0.0602
 2140TP3     H1 6432   0.141   0.378   1.807 -0.6130 -0.9765  1.0822
 2140TP3     H2 6433   0.031   0.274   1.798 -0.6353 -0.8236 -0.7359
 2141TP3      O 6434   5.623   0.143   0.961 -0.4265  0.1335  0.5849
 2141TP3     H1 6435   5.531   0.144   0.935 -0.4857 -0.3360  0.7601
 2141TP3     H2 6436   5.655   0.231   0.940 -0.0773 -0.5961 -2.4147
 2142TP3      O 6437   1.057   5.844   1.682 -0.0321  0.2114 -0.0105
 2142TP3     H1 6438   1.122   5.775   1.670 -0.2631  0.1602 -1.1224
 2142TP3     H2 6439   1.071   5.876   1.771  0.9268 -0.3914  0.0655
 2143TP3      O 6440   2.242   0.401   3.892 -0.1779 -1.1808  0.3696
 2143TP3     H1 6441   2.335   0.410   3.915 -0.3242  0.2581  0.4790
 2143TP3     H2 6442   2.196   0.451   3.959 -0.7959  0.8641 -1.4450
 2144TP3      O 6443   1.950   0.203   2.647  0.2707  0.1073  0.6268
 2144TP3     H1 6444   2.044   0.222   2.655  0.8405 -2.2099  0.0263
 2144TP3     H2 6445   1.940   0.166   2.560 -0.7517 -1.8876  1.5212
 2145TP3      O 6446   1.435   4.659   3.077  0.2421 -0.3197  0.1110
 2145TP3     H1 6447   1.385   4.662   2.996 -0.9955 -1.1529  0.8190
 2145TP3     H2 6448   1.385   4.713   3.138 -0.0331 -1.5051  0.9538
 2146TP3      O 6449   1.078   5.294   3.277 -0.1910 -0.1325 -0.6443
 2146TP3     H1 6450   1.115   5.298   3.365 -1.8271 -0.8120  0.1170
 2146TP3     H2 6451   0.996   5.343   3.283 -0.4298 -0.3734 -1.7374
 2147TP3      O 6452   1.490   5.569   2.691  0.0284  0.1384 -0.3154
 2147TP3     H1 6453   1.413   5.567   2.747  0.1635 -3.2085 -0.0669
 2147TP3     H2 6454   1.455   5.575   2.602 -0.2453  3.3072 -0.1107
 2148TP3      O 6455   0.715   5.520   1.714 -0.8224 -0.4659 -0.1319
 2148TP3     H1 6456   0.703   5.612   1.690  0.7659 -0.0317  0.5616
 2148TP3     H2 6457   0.775   5.487   1.647 -0.3499 -0.6208  0.3642
 2149TP3      O 6458   1.740   0.732   2.356  0.6472 -0.1017 -0.2385
 2149TP3     H1 6459   1.672   0.767   2.413  1.1299  0.3751  0.0509
 2149TP3     H2 6460   1.711   0.643   2.336  0.5252 -0.3047  0.8192
 2150TP3      O 6461   5.996   5.482   4.303  0.1817  0.3002  0.3877
 2150TP3     H1 6462   5.913   5.439   4.285  0.2209  0.2500  0.3236
 2150TP3     H2 6463   5.973   5.571   4.328 -0.0005 -0.1163  1.8214
 2151TP3      O 6464   5.771   5.390   4.311  0.3561  0.5663  0.0184
 2151TP3     H1 6465   5.770   5.416   4.403  0.4490 -1.8951  0.7854
 2151TP3     H2 6466   5.734   5.302   4.310  2.1053 -0.2532 -2.0378
 2152TP3      O 6467   0.710   0.185   3.173 -0.5713 -0.8814  0.2126
 2152TP3     H1 6468   0.642   0.138   3.221 -0.0206  1.3172  3.4643
 2152TP3     H2 6469   0.755   0.237   3.239  1.4085  1.1727 -2.5028
 2153TP3      O 6470   5.437   0.443   5.334  0.3682  0.2454 -0.5610
 2153TP3     H1 6471   5.413   0.354   5.307 -1.7785  0.2330  1.0431
 2153TP3     H2 6472   5.505   0.430   5.401  0.7382 -0.1146 -0.9992
 2154TP3      O 6473   1.014   5.900   4.782 -0.1140 -0.2314  0.0625
 2154TP3     H1 6474   0.963   5.890   4.863 -0.3300  0.5259  0.0342
 2154TP3     H2 6475   1.053   5.987   4.791  1.9366 -1.1494  0.5086
 2155TP3      O 6476   1.480   0.481   5.663  0.4883 -0.3185 -0.0920
 2155TP3     H1 6477   1.409   0.535   5.698  1.0993  0.8667 -0.6295
 2155TP3     H2 6478   1.512   0.432   5.738 -0.9910 -1.0008  0.1321
 2156TP3      O 6479   1.064   5.607   4.774  0.0734 -0.4683  0.2956
 2156TP3     H1 6480   1.152   5.644   4.772 -0.6473  1.4587 -2.9911
 2156TP3     H2 6481   1.006   5.682   4.782 -1.3567 -1.7009  2.3032
 2157TP3      O 6482   5.758   5.319   5.416  0.2617  0.7964 -0.0603
 2157TP3     H1 6483   5.757   5.247   5.353 -0.5633  1.7332 -1.1669
 2157TP3     H2 6484   5.778   5.277   5.499 -1.7201 -0.9850 -0.3764
 2158TP3      O 6485   2.077   5.699   4.817  0.4615  0.2774 -0.3860
 2158TP3     H1 6486   2.015   5.761   4.779 -0.4181 -0.6399 -0.4835
 2158TP3     H2 6487   2.081   5.627   4.755  1.1072  0.0080 -0.0483
 2159TP3      O 6488   0.732   5.608   4.490 -0.0184  0.2000 -0.1086
 2159TP3     H1 6489   0.813   5.567   4.520 -0.4364 -0.0483  0.7259
 2159TP3     H2 6490   0.667   5.583   4.557 -0.2466  2.3743  0.5418
 2160TP3      O 6491   0.464   5.925   4.179  0.1518 -0.8842 -0.0015
 2160TP3     H1 6492   0.536   5.909   4.241  0.6340  0.7286 -0.0941
 2160TP3     H2 6493   0.428   6.009   4.206  0.3754 -0.1251 -1.8921
 2161TP3      O 6494   5.917   0.270   3.902  0.2796 -0.0129 -0.4671
 2161TP3     H1 6495   5.925   0.365   3.908 -1.4391  0.1241  0.2439
 2161TP3     H2 6496   5.954   0.248   3.816  3.9526  0.8173  0.7275
 2162TP3      O 6497   1.085   0.364   3.771  0.3741  0.5269  1.1749
 2162TP3     H1 6498   1.027   0.311   3.716  0.9280 -0.4895  1.5411
 2162TP3     H2 6499   1.068   0.334   3.860 -0.1559  1.8142  1.5218
 2163TP3      O 6500   1.894   5.854   4.986 -0.1945  0.3432  0.1019
 2163TP3     H1 6501   1.975   5.811   4.958  0.2387  1.7111 -0.8419
 2163TP3     H2 6502   1.839   5.782   5.020  1.0064 -0.7404 -0.1675
 2164TP3      O 6503   0.886   5.642   3.437  0.2075  0.7692  0.2520
 2164TP3     H1 6504   0.895   5.605   3.525 -0.6671  1.6793  0.7429
 2164TP3     H2 6505   0.869   5.735   3.452  0.9954  1.1218 -0.9197
 2165TP3      O 6506   1.214   5.310   5.697  0.1537  0.1103  0.1061
 2165TP3     H1 6507   1.144   5.343   5.753 -0.4893 -0.1301 -0.5435
 2165TP3     H2 6508   1.215   5.368   5.621  0.8296  0.2666  0.2291
 2166TP3      O 6509   0.944   0.072   5.614  0.3395  0.0528 -0.0156
 2166TP3     H1 6510   0.881   0.031   5.555 -0.1443  0.1550  0.4304
 2166TP3     H2 6511   1.028   0.033   5.588 -0.2612 -2.3265  1.3127
 2167TP3      O 6512   0.158   5.491   4.914 -0.2552 -0.3339  0.2851
 2167TP3     H1 6513   0.240   5.467   4.956 -0.6918 -0.8362  0.8832
 2167TP3     H2 6514   0.159   5.445   4.831 -0.4467 -1.3175  0.8098
 2168TP3      O 6515   0.272   5.689   4.163  0.1385 -0.4603  1.0795
 2168TP3     H1 6516   0.364   5.665   4.147 -0.1930 -2.0038  1.3754
 2168TP3     H2 6517   0.276   5.754   4.233  1.1363  1.1920 -0.4225
 2169TP3      O 6518   1.571   4.862   4.633  0.4860 -0.0036  0.3613
 2169TP3     H1 6519   1.493   4.836   4.683 -0.9572  0.8764 -1.2970
 2169TP3     H2 6520   1.565   4.811   4.552 -0.2514  2.4206 -1.2251
 2170TP3      O 6521   0.076   5.766   5.270  0.3840 -0.1652  0.0289
 2170TP3     H1 6522   0.160   5.752   5.227  1.0069  0.2974  1.0646
 2170TP3     H2 6523   0.026   5.687   5.251  1.3339 -0.7887  0.0621
 2171TP3      O 6524   1.178   4.914   5.035  0.1688  0.1883 -0.1165
 2171TP3     H1 6525   1.137   4.967   5.104 -0.7798 -2.0667  1.1437
 2171TP3     H2 6526   1.110   4.908   4.967  0.6126  1.2720 -0.6915
 2172TP3      O 6527   0.953   4.868   2.741 -0.9493 -0.0045 -0.0163
 2172TP3     H1 6528   0.993   4.952   2.760 -2.1647  1.0837 -1.9797
 2172TP3     H2 6529   0.905   4.845   2.821 -0.1332  0.8723  0.7336
 2173TP3      O 6530   1.292   0.639   5.387 -0.0012  0.8102 -0.2593
 2173TP3     H1 6531   1.246   0.607   5.310  3.2585 -0.2332 -1.9492
 2173TP3     H2 6532   1.360   0.697   5.352  0.3178  1.9514  2.0372
 2174TP3      O 6533   1.351   5.720   4.864  0.0503  0.7145  0.3590
 2174TP3     H1 6534   1.363   5.814   4.851  1.8100  0.6557  1.3508
 2174TP3     H2 6535   1.410   5.679   4.802 -1.4304  0.1935 -0.7734
 2175TP3      O 6536   0.885   5.996   0.110  0.3189  0.4899 -0.0897
 2175TP3     H1 6537   0.967   5.947   0.118  1.2639  1.7050 -1.7607
 2175TP3     H2 6538   0.860   5.986   0.018 -0.5550  1.4248  0.0299
 2176TP3      O 6539   0.848   5.902   5.002 -0.1363 -0.1417  0.5474
 2176TP3     H1 6540   0.911   5.885   5.072 -0.1732  0.3683  0.7085
 2176TP3     H2 6541   0.796   5.975   5.034 -1.4091 -1.1367  0.8103
 2177TP3      O 6542   0.727   5.784   4.760  0.4161  0.5190 -0.3710
 2177TP3     H1 6543   0.656   5.722   4.745 -0.1263  1.2838 -1.0816
 2177TP3     H2 6544   0.728   5.796   4.855 -1.4094  1.5983 -0.4315
 2178TP3      O 6545   0.536   0.234   3.846 -0.5175  0.3575 -0.5636
 2178TP3     H1 6546   0.556   0.149   3.885 -2.8727 -0.2800 -0.6226
 2178TP3     H2 6547   0.464   0.268   3.898 -0.8278  1.4745 -1.6799
 2179TP3      O 6548   0.488   6.006   3.284  0.1915  0.4310  0.2016
 2179TP3     H1 6549   0.519   5.916   3.277  1.4444  0.9357 -1.2893
 2179TP3     H2 6550   0.453   6.012   3.373  1.2485 -1.1603  0.7731
 2180TP3      O 6551   0.974   5.471   4.558  0.1308 -0.3730 -0.2071
 2180TP3     H1 6552   0.938   5.404   4.617  0.2112  0.7698  1.1880
 2180TP3     H2 6553   1.029   5.525   4.615 -1.5092  2.1095 -0.8681
 2181TP3      O 6554   0.671   0.024   5.479 -0.0179  0.7317 -0.1044
 2181TP3     H1 6555   0.583  -0.006   5.457 -0.2304  0.8209  0.5929
 2181TP3     H2 6556   0.658   0.112   5.514  0.1824  0.2237  1.3095
 2182TP3      O 6557   1.616   4.829   3.874  0.1799  0.3954  0.2584
 2182TP3     H1 6558   1.657   4.874   3.947  1.1537 -1.2200  0.7741
 2182TP3     H2 6559   1.581   4.748   3.912  1.3016 -0.8105 -1.1225
 2183TP3      O 6560   0.269   0.127   4.289  0.5367  0.1712 -0.0385
 2183TP3     H1 6561   0.247   0.220   4.303 -0.6949 -0.2056  0.7048
 2183TP3     H2 6562   0.330   0.106   4.359  0.5799  0.3374 -0.0260
 2184TP3      O 6563   1.532   0.075   3.050 -0.7226  0.0226 -0.1888
 2184TP3     H1 6564   1.600   0.011   3.071 -1.4403 -0.3592  1.0938
 2184TP3     H2 6565   1.573   0.160   3.063 -0.8302 -0.1931  1.9323
 2185TP3      O 6566   1.049   0.075   4.484 -0.0485  1.0681 -0.1334
 2185TP3     H1 6567   1.006   0.049   4.402 -0.4436  0.2782  0.3144
 2185TP3     H2 6568   1.064   0.169   4.474 -0.6902  1.1083 -0.8425
 2186TP3      O 6569   1.099   5.374   4.926 -0.2278  0.6190 -0.2972
 2186TP3     H1 6570   1.068   5.314   4.857  0.3662  1.8758 -1.7042
 2186TP3     H2 6571   1.081   5.461   4.891  2.1398  1.3396  0.1446
 2187TP3      O 6572   1.453   5.184   5.577 -0.4169 -0.1405 -0.0153
 2187TP3     H1 6573   1.528   5.179   5.637 -0.1274 -0.4307 -0.3988
 2187TP3     H2 6574   1.382   5.219   5.631 -0.4318 -1.3173  0.7668
 2188TP3      O 6575   5.915   0.350   2.378  0.3249  0.4822 -0.3367
 2188TP3     H1 6576   5.986   0.291   2.404  0.7061  1.0220 -0.1309
 2188TP3     H2 6577   5.837   0.296   2.381  0.7894 -0.2517 -1.0219
 2189TP3      O 6578   5.729   0.452   3.953 -0.4515 -0.0854  0.2691
 2189TP3     H1 6579   5.736   0.515   3.881 -2.8583 -0.0350  0.0152
 2189TP3     H2 6580   5.636   0.430   3.957 -0.6795  0.9290  4.2918
 2190TP3      O 6581   1.597   0.139   3.887  0.5335 -0.4304  0.2060
 2190TP3     H1 6582   1.672   0.190   3.917  0.2809 -0.5812  1.1148
 2190TP3     H2 6583   1.575   0.083   3.961  0.9076 -1.9924 -0.8126
 2191TP3      O 6584   2.293   0.409   5.664  0.3288  0.3881 -0.7543
 2191TP3     H1 6585   2.233   0.454   5.604  1.3834  0.6967 -1.6110
 2191TP3     H2 6586   2.291   0.318   5.635  0.0029  0.3256 -0.5444
 2192TP3      O 6587   1.720   5.731   4.778  0.4450 -0.2034 -0.1764
 2192TP3     H1 6588   1.794   5.699   4.727  1.1830  0.0296  0.7110
 2192TP3     H2 6589   1.746   5.819   4.806  0.7681 -0.8837  1.8668
 2193TP3      O 6590   2.328   0.131   5.580  0.1031  0.4191  0.1000
 2193TP3     H1 6591   2.295   0.057   5.630  1.5028 -1.2212 -1.2598
 2193TP3     H2 6592   2.312   0.107   5.488 -0.5424  2.3861 -0.3545
 2194TP3      O 6593   0.366   5.726   4.679  0.3562 -0.2403 -0.0360
 2194TP3     H1 6594   0.335   5.764   4.596 -0.2607 -2.7647 -1.0786
 2194TP3     H2 6595   0.294   5.742   4.741  0.1891  0.4163 -0.3917
 2195TP3      O 6596   1.227   5.080   4.218  0.2936 -0.2599 -0.0819
 2195TP3     H1 6597   1.313   5.095   4.257  1.1925 -2.6497 -0.9186
 2195TP3     H2 6598   1.221   4.984   4.211 -1.6131 -0.0773 -1.8585
 2196TP3      O 6599   0.877   5.752   3.689 -0.3814  0.1219 -0.3867
 2196TP3     H1 6600   0.913   5.709   3.766  0.5311 -2.1645 -1.9946
 2196TP3     H2 6601   0.847   5.837   3.721 -1.4810 -1.3010  2.8085
 2197TP3      O 6602   0.892   5.571   3.919  0.2162 -0.3881 -0.5019
 2197TP3     H1 6603   0.827   5.615   3.975  2.1295  2.0431 -0.0368
 2197TP3     H2 6604   0.870   5.478   3.927 -1.8299  0.1540  1.3833
 2198TP3      O 6605   1.965   0.068   5.763  0.4904 -0.0949  0.4261
 2198TP3     H1 6606   1.960   0.162   5.748 -0.8414 -0.3781 -1.1178
 2198TP3     H2 6607   1.905   0.052   5.836  1.3033  0.3116  1.2170
 2199TP3      O 6608   0.962   0.018   0.568  0.1840 -0.0766  0.2175
 2199TP3     H1 6609   0.973   0.088   0.503  1.3123 -0.2905  0.1438
 2199TP3     H2 6610   1.041   0.024   0.622 -0.8455  0.2351  1.7224
 2200TP3      O 6611   0.858   5.365   5.821 -0.1632  0.1531  0.0116
 2200TP3     H1 6612   0.790   5.300   5.803 -1.8175  1.5493  0.8913
 2200TP3     H2 6613   0.896   5.339   5.904  0.0848 -0.3868 -0.2658
 2201TP3      O 6614   0.135   0.549   5.604 -0.2412  0.1277  0.8923
 2201TP3     H1 6615   0.143   0.642   5.624 -1.0292  0.4668 -0.2284
 2201TP3     H2 6616   0.042   0.537   5.587  0.2453 -0.1544 -2.0539
 2202TP3      O 6617   0.994   5.298   0.047 -0.4200 -0.5955  0.4319
 2202TP3     H1 6618   0.956   5.354   0.114 -0.0100 -0.4750  0.5597
 2202TP3     H2 6619   1.077   5.339   0.024 -0.2743 -0.9687  0.2862
 2203TP3      O 6620   1.062   0.070   5.285  0.9468  0.0317  0.2992
 2203TP3     H1 6621   1.017   0.153   5.272  0.9995 -0.0306 -0.3515
 2203TP3     H2 6622   0.992   0.005   5.291  0.8782  0.2250  1.6677
 2204TP3      O 6623   0.087   5.196   0.907  0.3097  0.3072  0.2799
 2204TP3     H1 6624  -0.005   5.171   0.910  0.2050  0.7810  1.5454
 2204TP3     H2 6625   0.095   5.247   0.826 -0.8184  1.2621  0.7396
 2205TP3      O 6626   0.145   0.813   6.015 -0.7615  0.1861  0.5009
 2205TP3     H1 6627   0.188   0.752   5.956 -0.1446  0.4613  0.6624
 2205TP3     H2 6628   0.052   0.809   5.990 -0.8417 -1.2753  0.9301
 2206TP3      O 6629   1.976   0.750   5.413 -0.0660 -0.0121 -0.5614
 2206TP3     H1 6630   1.942   0.758   5.324 -0.9795  0.9218 -0.1489
 2206TP3     H2 6631   1.959   0.835   5.453 -0.8557 -0.8260  0.9186
 2207TP3      O 6632   0.947   5.502   5.164 -0.4307 -0.4884  0.2624
 2207TP3     H1 6633   1.037   5.498   5.196 -0.3637  0.5817  0.2462
 2207TP3     H2 6634   0.906   5.570   5.217 -1.1993 -0.8670  0.1691
 2208TP3      O 6635   2.183   5.941   5.701  0.7047  0.0911 -0.0400
 2208TP3     H1 6636   2.186   5.864   5.758  0.2429 -0.2445 -0.4580
 2208TP3     H2 6637   2.097   5.979   5.717  1.2933  1.0965  0.8860
 2209TP3      O 6638   6.001   0.958   0.678 -0.0869  0.1372 -0.5328
 2209TP3     H1 6639   5.931   0.917   0.728 -2.2645  2.7684 -1.1646
 2209TP3     H2 6640   5.957   0.996   0.601  2.3731  0.2542 -2.0035
 2210TP3      O 6641   4.744   0.036   0.054 -0.2268 -0.0722 -0.4138
 2210TP3     H1 6642   4.747  -0.048   0.008 -0.3505 -0.3413  0.0678
 2210TP3     H2 6643   4.790   0.096  -0.004  2.0378 -1.0026  0.3084
 2211TP3      O 6644   1.902   0.387   0.046  0.8442 -0.1204  0.6883
 2211TP3     H1 6645   1.984   0.377   0.094  1.3207 -2.7001 -0.5030
 2211TP3     H2 6646   1.850   0.448   0.099  2.7184 -0.0175  2.5246
 2212TP3      O 6647   2.273   0.814   5.487  0.2575  0.0213  0.3231
 2212TP3     H1 6648   2.234   0.727   5.481  1.0155 -0.2891 -0.2964
 2212TP3     H2 6649   2.209   0.866   5.536 -0.8545 -0.5092 -0.5258
 2213TP3      O 6650   1.230   5.761   0.666 -0.5210 -0.0251 -0.3146
 2213TP3     H1 6651   1.278   5.745   0.586  0.3128  1.1178 -0.0669
 2213TP3     H2 6652   1.272   5.838   0.705 -0.0332 -1.2956  1.8779
 2214TP3      O 6653   1.366   0.263   5.896 -0.1268  0.0020 -0.1185
 2214TP3     H1 6654   1.295   0.325   5.913  0.6351  0.2104  2.8269
 2214TP3     H2 6655   1.440   0.297   5.947  2.3723  0.1062 -3.4689
 2215TP3      O 6656   2.695   1.178   1.285  0.2639  0.3926  0.0906
 2215TP3     H1 6657   2.776   1.160   1.333  0.4146 -0.8430 -0.5947
 2215TP3     H2 6658   2.722   1.232   1.211  0.5107 -0.2374 -0.2842
 2216TP3      O 6659   2.833   1.822   0.431  0.8604 -0.1102 -0.5301
 2216TP3     H1 6660   2.817   1.732   0.457  1.3507  0.3421  1.5015
 2216TP3     H2 6661   2.747   1.857   0.410  0.4736 -0.6254  0.1739
 2217TP3      O 6662   3.086   0.188   1.113  1.0656  0.2809 -0.4264
 2217TP3     H1 6663   3.034   0.132   1.171  0.5437  2.1197  0.9926
 2217TP3     H2 6664   3.166   0.207   1.163  1.5694  0.2284 -1.1849
 2218TP3      O 6665   3.920   0.043   0.143 -0.1600 -0.2463  0.0788
 2218TP3     H1 6666   3.891   0.078   0.228 -1.0057  2.5820 -1.2486
 2218TP3     H2 6667   3.839   0.015   0.100  0.2561 -1.6114  0.1451
 2219TP3      O 6668   2.945   1.500   0.692  0.0631  0.0630  0.5491
 2219TP3     H1 6669   2.957   1.406   0.704  0.6992 -0.1320 -1.3038
 2219TP3     H2 6670   2.862   1.519   0.737  0.4194 -1.1753  1.7910
 2220TP3      O 6671   2.205   0.655   1.098 -0.2735  0.7431 -0.2971
 2220TP3     H1 6672   2.190   0.563   1.076  0.6418  0.7325 -0.9673
 2220TP3     H2 6673   2.269   0.653   1.169  1.0649  0.8554 -1.4411
 2221TP3      O 6674   2.730   1.726   1.149 -0.2766  0.0068 -0.1519
 2221TP3     H1 6675   2.814   1.712   1.193  0.1143  0.0355 -0.8699
 2221TP3     H2 6676   2.665   1.724   1.219  0.5529  2.5387  0.8092
 2222TP3      O 6677   2.711   1.003   1.751  0.2328  0.1101 -0.0630
 2222TP3     H1 6678   2.665   0.920   1.764 -1.6334  1.0551 -0.3170
 2222TP3     H2 6679   2.761   0.991   1.670  1.8855 -1.5135  1.1008
 2223TP3      O 6680   2.954   1.572   1.580 -0.7841  0.4664  0.1814
 2223TP3     H1 6681   2.931   1.649   1.634 -0.0382  0.5321  0.4230
 2223TP3     H2 6682   2.951   1.499   1.641 -0.4799  0.4560  0.1812
 2224TP3      O 6683   3.661   1.275   1.122  0.4665  0.2383 -0.2055
 2224TP3     H1 6684   3.623   1.227   1.049  0.0410 -2.1884  1.4560
 2224TP3     H2 6685   3.734   1.220   1.152 -0.5739  0.0758  2.3461
 2225TP3      O 6686   2.855   0.452   2.718  0.7507 -0.1677 -0.0101
 2225TP3     H1 6687   2.947   0.480   2.713  0.5739  0.6954  1.0774
 2225TP3     H2 6688   2.844   0.422   2.808  0.1416 -0.9515 -0.3350
 2226TP3      O 6689   3.976   0.259   1.331  0.0717  0.2887 -1.3656
 2226TP3     H1 6690   3.974   0.337   1.277  1.9709 -0.3649 -2.5058
 2226TP3     H2 6691   4.069   0.248   1.353 -0.6066  0.5766  2.1823
 2227TP3      O 6692   1.729   2.516   0.163 -0.1012 -0.5948 -0.7600
 2227TP3     H1 6693   1.647   2.551   0.197 -0.8260 -1.9138 -1.0534
 2227TP3     H2 6694   1.761   2.459   0.233  0.5330 -0.1555 -0.6836
 2228TP3      O 6695   2.811   0.901   1.335 -0.0308  0.0698 -0.3120
 2228TP3     H1 6696   2.804   0.970   1.401 -1.8571  1.3350 -1.7249
 2228TP3     H2 6697   2.740   0.841   1.355 -0.1114  0.0487 -0.6493
 2229TP3      O 6698   1.844   1.779   0.926 -1.0233 -0.1355  0.3598
 2229TP3     H1 6699   1.851   1.854   0.867 -1.5942 -2.1827 -2.5461
 2229TP3     H2 6700   1.752   1.777   0.952 -0.8968  0.4257  0.8814
 2230TP3      O 6701   2.087   0.690   0.091  0.4662  0.1034  0.5863
 2230TP3     H1 6702   2.099   0.674  -0.002  1.2227 -1.0634  0.8778
 2230TP3     H2 6703   2.152   0.757   0.113 -0.8842  1.7234 -0.0515
 2231TP3      O 6704   2.274   0.934   0.941 -0.6395 -0.1973  0.4056
 2231TP3     H1 6705   2.276   0.859   1.001  0.8165  0.3094  1.0417
 2231TP3     H2 6706   2.357   0.978   0.956 -0.7267  0.5728 -1.2291
 2232TP3      O 6707   2.023   1.615   0.044  0.0281 -0.2637  0.3458
 2232TP3     H1 6708   2.073   1.656   0.114  0.8009 -1.9735  0.8315
 2232TP3     H2 6709   1.969   1.550   0.088 -1.3260  0.3223 -0.3835
 2233TP3      O 6710   3.779   5.691   0.951  0.1043  0.3513 -0.1127
 2233TP3     H1 6711   3.687   5.699   0.977 -0.1936 -2.7599  0.1153
 2233TP3     H2 6712   3.779   5.714   0.858 -0.6190  1.6795  0.1838
 2234TP3      O 6713   1.538   5.255   0.889 -0.2987  0.5627  0.0963
 2234TP3     H1 6714   1.541   5.193   0.817  3.3156  0.6803 -0.0456
 2234TP3     H2 6715   1.543   5.341   0.847  0.1100  0.6968  0.4086
 2235TP3      O 6716   4.317   2.192   0.293  0.5319 -0.2104  0.0833
 2235TP3     H1 6717   4.392   2.137   0.316  0.2074 -0.7023 -0.0021
 2235TP3     H2 6718   4.352   2.257   0.232  1.1961  0.5025  1.2019
 2236TP3      O 6719   1.813   2.113   0.938 -0.8742  0.0115 -0.5440
 2236TP3     H1 6720   1.862   2.100   0.856  0.9611 -0.6324  0.6015
 2236TP3     H2 6721   1.764   2.194   0.923  1.1400  1.1430 -1.5374
 2237TP3      O 6722   2.023   0.333   0.690 -0.3536 -0.2327 -0.2702
 2237TP3     H1 6723   2.006   0.365   0.602 -0.6176 -2.1621 -0.9693
 2237TP3     H2 6724   2.101   0.278   0.681 -0.3612 -0.4283  0.7187
 2238TP3      O 6725   3.227   0.578   0.900 -0.0270 -0.9741  0.3083
 2238TP3     H1 6726   3.291   0.585   0.830 -0.8246  0.7807 -0.2936
 2238TP3     H2 6727   3.144   0.560   0.856 -0.7927  1.4676  0.5866
 2239TP3      O 6728   1.517   0.693   1.749  0.6205 -0.5808  0.3207
 2239TP3     H1 6729   1.547   0.638   1.822 -1.4650 -2.5014 -0.1503
 2239TP3     H2 6730   1.449   0.749   1.788  2.0112  1.0018  0.5664
 2240TP3      O 6731   1.019   1.242   5.757  0.2931  0.1479 -0.2608
 2240TP3     H1 6732   1.089   1.198   5.709  0.5011 -1.2899  1.2553
 2240TP3     H2 6733   1.039   1.225   5.849 -1.0969  1.2173  0.2761
 2241TP3      O 6734   3.175   0.868   0.969 -0.0586  0.3051 -0.4780
 2241TP3     H1 6735   3.193   0.796   0.910  0.7033  0.4765 -0.4603
 2241TP3     H2 6736   3.241   0.934   0.948 -1.0352  1.2114 -0.8388
 2242TP3      O 6737   3.192   5.486   1.594 -0.3021 -0.6521  0.4205
 2242TP3     H1 6738   3.201   5.394   1.617  0.6702 -0.7469 -0.2600
 2242TP3     H2 6739   3.113   5.515   1.639 -0.6433 -1.8297  0.6078
 2243TP3      O 6740   1.965   1.205   1.320  0.4898  0.3310  0.2138
 2243TP3     H1 6741   1.903   1.183   1.390 -0.1935 -0.4596 -0.6175
 2243TP3     H2 6742   2.037   1.144   1.333 -0.4120 -0.9935 -0.7696
 2244TP3      O 6743   3.425   0.998   0.591 -0.2121  0.4472 -0.0315
 2244TP3     H1 6744   3.474   0.930   0.638 -1.4974  0.2610  1.1094
 2244TP3     H2 6745   3.434   1.076   0.646  2.4059  1.6875 -2.0014
 2245TP3      O 6746   3.475   1.922   2.063  0.2957  0.1446  0.3310
 2245TP3     H1 6747   3.447   1.895   2.150  2.6660 -0.6791  0.8984
 2245TP3     H2 6748   3.482   2.017   2.068 -1.3733  0.3007  0.4179
 2246TP3      O 6749   2.314   5.801   2.198 -0.4302 -0.2642  0.2163
 2246TP3     H1 6750   2.319   5.853   2.118 -0.4170 -0.6724 -0.0528
 2246TP3     H2 6751   2.290   5.713   2.167  1.6829 -0.9639  0.4336
 2247TP3      O 6752   3.292   1.628   0.799  0.1559  0.5780  0.1112
 2247TP3     H1 6753   3.274   1.534   0.790  3.9735 -0.2177 -0.6755
 2247TP3     H2 6754   3.246   1.668   0.725 -0.3765 -0.8401 -0.3530
 2248TP3      O 6755   3.317   1.727   0.455  0.2332 -0.2779  0.3160
 2248TP3     H1 6756   3.233   1.730   0.501  0.5750  1.5193  0.8950
 2248TP3     H2 6757   3.334   1.818   0.431  0.4958 -0.9959 -2.6349
 2249TP3      O 6758   2.698   1.716  -0.028  0.1329  0.5978 -0.2342
 2249TP3     H1 6759   2.768   1.773   0.005 -0.5774  1.5712 -0.3651
 2249TP3     H2 6760   2.659   1.677   0.050  2.1011 -1.5877 -0.2261
 2250TP3      O 6761   3.067   0.678   0.496  0.1300  0.2169  0.4992
 2250TP3     H1 6762   3.144   0.736   0.491 -0.5087  1.1874  1.3431
 2250TP3     H2 6763   3.073   0.640   0.584  0.7866 -1.3936 -0.2081
 2251TP3      O 6764   3.517   2.051   5.901  0.3734 -1.4121  0.0187
 2251TP3     H1 6765   3.580   2.121   5.916  0.6321 -1.2992 -1.4258
 2251TP3     H2 6766   3.503   2.013   5.987 -1.4679  1.8030  1.2976
 2252TP3      O 6767   2.384   0.110   1.357  0.1656 -0.0916  0.0445
 2252TP3     H1 6768   2.351   0.192   1.320 -1.3023  1.9823  5.1522
 2252TP3     H2 6769   2.466   0.134   1.401  0.6998 -1.8342  0.1053
 2253TP3      O 6770   3.630   0.586   2.440  0.1068  0.0646  0.3017
 2253TP3     H1 6771   3.610   0.657   2.379  1.2904  0.2399  0.1003
 2253TP3     H2 6772   3.646   0.510   2.383  3.3248  0.7163  0.1920
 2254TP3      O 6773   2.102   0.667   0.815 -0.0663 -0.3747 -0.4286
 2254TP3     H1 6774   2.114   0.629   0.901 -0.6558 -0.0913 -0.2159
 2254TP3     H2 6775   2.038   0.738   0.828  0.3235  0.0919 -0.9731
 2255TP3      O 6776   2.954   0.429   1.141 -0.1362  0.1029  0.8880
 2255TP3     H1 6777   3.032   0.396   1.097 -0.4673 -0.6843  0.8741
 2255TP3     H2 6778   2.928   0.359   1.201 -1.7435 -0.3369 -0.2470
 2256TP3      O 6779   3.270   5.946   1.348  0.0476  0.3579 -0.5558
 2256TP3     H1 6780   3.235   5.910   1.267 -0.5917  1.9356 -1.0114
 2256TP3     H2 6781   3.204   6.008   1.379  1.8239  2.5191 -0.7916
 2257TP3      O 6782   2.958   1.056   0.904  0.1565 -0.5188  0.2197
 2257TP3     H1 6783   3.040   1.006   0.902  0.9422  0.7294 -0.0872
 2257TP3     H2 6784   2.980   1.137   0.951 -0.1339  1.0258 -2.1132
 2258TP3      O 6785   1.404   2.473   1.459  0.1483 -0.2145  0.2118
 2258TP3     H1 6786   1.360   2.452   1.377 -0.7561 -1.0167  0.8764
 2258TP3     H2 6787   1.411   2.568   1.459 -0.6791 -0.1421 -0.3716
 2259TP3      O 6788   3.454   0.406   0.929  0.8999  0.1233  0.4615
 2259TP3     H1 6789   3.387   0.435   0.991 -1.0030 -2.4823 -0.2195
 2259TP3     H2 6790   3.524   0.370   0.983 -0.0381 -0.6985  1.1475
 2260TP3      O 6791   1.977   0.382   2.318 -0.1073 -0.0639 -0.0366
 2260TP3     H1 6792   1.914   0.452   2.333 -0.0540  0.2029 -0.9837
 2260TP3     H2 6793   1.927   0.302   2.326 -0.6632  0.1510 -1.0969
 2261TP3      O 6794   3.187   0.311   0.085 -0.3442 -0.0244  0.5022
 2261TP3     H1 6795   3.146   0.250   0.147 -1.3519 -0.5637 -0.6677
 2261TP3     H2 6796   3.198   0.261   0.005 -0.7006  1.1581 -0.3202
 2262TP3      O 6797   1.663   0.393   1.559 -0.5704  0.5758 -0.1757
 2262TP3     H1 6798   1.574   0.425   1.575 -0.8668  0.1363 -0.8905
 2262TP3     H2 6799   1.709   0.409   1.642 -1.1198  1.4339 -0.0182
 2263TP3      O 6800   2.304   2.179   0.140  0.7543  0.1186 -0.2225
 2263TP3     H1 6801   2.369   2.247   0.127  1.2555  0.2713  2.5048
 2263TP3     H2 6802   2.220   2.224   0.131  1.0761  0.8689  0.3825
 2264TP3      O 6803   1.517   1.310   0.512  0.4670  0.2960  0.6434
 2264TP3     H1 6804   1.536   1.292   0.604 -0.2239 -2.1089  0.3774
 2264TP3     H2 6805   1.426   1.342   0.512 -0.9691 -3.3687  0.5652
 2265TP3      O 6806   3.265   0.131   0.353 -0.1978 -0.1348  0.2105
 2265TP3     H1 6807   3.209   0.201   0.389 -1.0410  0.3466 -1.8653
 2265TP3     H2 6808   3.331   0.117   0.420  0.0565  2.7228  0.7180
 2266TP3      O 6809   2.850   1.192   0.692 -0.5146  0.1001  0.5466
 2266TP3     H1 6810   2.882   1.175   0.781  2.7944 -0.4716 -0.6170
 2266TP3     H2 6811   2.848   1.105   0.650  1.9631  0.7259 -1.0579
 2267TP3      O 6812   2.469   1.077   0.100 -0.2593  0.5630 -0.1990
 2267TP3     H1 6813   2.530   1.036   0.161  0.3586  1.5279 -0.1407
 2267TP3     H2 6814   2.396   1.017   0.094  0.8144 -0.7668 -0.4702
 2268TP3      O 6815   3.286   0.831   0.386 -1.0435 -0.0974 -0.8247
 2268TP3     H1 6816   3.320   0.869   0.305 -0.6616  0.0761 -0.5908
 2268TP3     H2 6817   3.272   0.907   0.443  0.1677 -0.3317 -0.1918
 2269TP3      O 6818   2.700   1.408   1.961 -0.2826  0.0028 -0.7145
 2269TP3     H1 6819   2.659   1.428   2.045  0.7843 -2.9927  0.6653
 2269TP3     H2 6820   2.680   1.316   1.947  2.7134 -0.5757 -1.8449
 2270TP3      O 6821   3.408   1.285   0.371  0.5837  1.2881 -0.1879
 2270TP3     H1 6822   3.389   1.376   0.393  0.3471  1.5543 -1.4228
 2270TP3     H2 6823   3.497   1.287   0.334  0.8756  0.8925  0.4645
 2271TP3      O 6824   2.116   0.347   1.624  0.5078  0.5656 -0.1661
 2271TP3     H1 6825   2.060   0.279   1.587 -1.1447  1.3550  0.8079
 2271TP3     H2 6826   2.154   0.306   1.703 -1.5208  1.1376  1.1673
 2272TP3      O 6827   3.489   2.261   5.697  0.1635  0.1722 -0.2271
 2272TP3     H1 6828   3.473   2.176   5.738 -1.0857  0.4385 -0.1113
 2272TP3     H2 6829   3.566   2.247   5.642  1.0156 -0.5591  1.1152
 2273TP3      O 6830   1.578   1.841   0.369  0.0833  0.2492  0.1714
 2273TP3     H1 6831   1.559   1.891   0.289 -1.4302 -0.4360  0.0579
 2273TP3     H2 6832   1.663   1.801   0.353  0.9681  2.1164 -0.0528
 2274TP3      O 6833   3.598   5.767   0.206 -0.6270 -0.2171 -0.7355
 2274TP3     H1 6834   3.525   5.706   0.220 -1.4113  1.1780  1.8067
 2274TP3     H2 6835   3.669   5.731   0.259 -1.1444  1.0519  0.9152
 2275TP3      O 6836   1.825   1.469   1.795  0.0188  0.0347 -0.2015
 2275TP3     H1 6837   1.836   1.467   1.700 -0.7033 -0.6972 -0.2850
 2275TP3     H2 6838   1.759   1.538   1.809  0.0764  0.0975 -0.2387
 2276TP3      O 6839   2.962   0.926   0.615  0.7198  0.3958  0.2797
 2276TP3     H1 6840   3.006   1.006   0.583  2.6752 -0.5819  0.3733
 2276TP3     H2 6841   2.986   0.859   0.552  0.5986 -0.5006  1.1642
 2277TP3      O 6842   2.631   5.738   0.929 -0.3664  0.1016  0.1862
 2277TP3     H1 6843   2.614   5.750   0.836  0.4880  1.0859  0.1419
 2277TP3     H2 6844   2.545   5.742   0.970 -0.5041  3.1207 -0.2185
 2278TP3      O 6845   3.831   0.690   2.235 -0.1894  0.5935  0.0578
 2278TP3     H1 6846   3.778   0.764   2.264  0.3009  0.7112  0.6683
 2278TP3     H2 6847   3.908   0.692   2.291  0.5814  0.5690 -0.9736
 2279TP3      O 6848   2.115   5.868   0.587 -0.2383 -0.2172  0.0696
 2279TP3     H1 6849   2.105   5.796   0.649  0.3739 -1.6487 -1.4291
 2279TP3     H2 6850   2.200   5.907   0.609 -0.1569 -0.5217  0.3002
 2280TP3      O 6851   2.874   0.733   1.964 -0.0260  0.0296 -0.4969
 2280TP3     H1 6852   2.920   0.814   1.987  0.4116 -0.1998 -0.5461
 2280TP3     H2 6853   2.863   0.689   2.048  0.1392 -0.0667 -0.5252
 2281TP3      O 6854   3.337   1.080   0.922  0.8959  0.3992 -0.4328
 2281TP3     H1 6855   3.433   1.081   0.925  0.8813  0.6878  0.1354
 2281TP3     H2 6856   3.311   1.141   0.991  0.3076  0.8419 -1.0357
 2282TP3      O 6857   4.657   5.844   1.134 -0.1827  0.3385 -0.1119
 2282TP3     H1 6858   4.704   5.924   1.106  1.1953  0.3079  1.9274
 2282TP3     H2 6859   4.726   5.778   1.141 -1.1750 -0.8008 -0.8039
 2283TP3      O 6860   2.427   1.521   0.774  0.6506  0.3642  0.4565
 2283TP3     H1 6861   2.464   1.463   0.707  1.1770 -0.2315  1.2499
 2283TP3     H2 6862   2.497   1.532   0.838 -0.1138  0.2859  1.3220
 2284TP3      O 6863   2.276   0.039   0.993 -0.0945 -0.1274  0.3439
 2284TP3     H1 6864   2.195   0.088   0.984  0.4935  1.0362  1.1593
 2284TP3     H2 6865   2.260  -0.042   0.944 -0.9971  0.9645 -1.2664
 2285TP3      O 6866   2.271   0.218   0.639  1.1144 -0.2234 -0.0703
 2285TP3     H1 6867   2.358   0.256   0.652  1.6919 -1.2783 -0.7962
 2285TP3     H2 6868   2.282   0.125   0.656  0.3011 -0.4897 -0.9211
 2286TP3      O 6869   3.439   1.758   5.651 -0.4411 -0.1314 -0.2521
 2286TP3     H1 6870   3.357   1.732   5.608  0.4451 -3.6679 -0.1488
 2286TP3     H2 6871   3.411   1.797   5.734 -2.0433 -0.2834 -0.6767
 2287TP3      O 6872   1.020   0.312   0.254 -0.3520  0.1631 -0.6378
 2287TP3     H1 6873   0.940   0.335   0.301 -1.1643 -1.4756 -1.1429
 2287TP3     H2 6874   1.060   0.244   0.308 -1.1766 -1.5861 -2.1296
 2288TP3      O 6875   2.620   5.926   0.721  0.1191 -0.4745  0.0737
 2288TP3     H1 6876   2.703   5.949   0.680 -0.4323 -0.6370 -1.1978
 2288TP3     H2 6877   2.626   5.960   0.810  2.3633 -2.2492  0.7097
 2289TP3      O 6878   3.317   0.251   1.240 -0.1946 -0.5636  0.0474
 2289TP3     H1 6879   3.400   0.247   1.192  0.0022  2.2843 -0.0194
 2289TP3     H2 6880   3.343   0.259   1.332 -0.4335 -1.1172  0.1627
 2290TP3      O 6881   2.373   2.089   0.733  0.3442  0.6658  0.4829
 2290TP3     H1 6882   2.381   2.022   0.801 -1.5405 -0.1584 -0.0439
 2290TP3     H2 6883   2.353   2.039   0.653 -2.1940  1.8427  0.2870
 2291TP3      O 6884   2.232   1.690   1.398  0.9018 -0.0861  0.0551
 2291TP3     H1 6885   2.175   1.614   1.391 -0.7211  0.9041  1.6792
 2291TP3     H2 6886   2.255   1.694   1.491  1.5282  1.0190 -0.1271
 2292TP3      O 6887   2.611   2.216   0.668 -0.1049 -0.5780  0.2535
 2292TP3     H1 6888   2.660   2.238   0.748  2.5594 -2.3531 -0.7293
 2292TP3     H2 6889   2.524   2.191   0.699  0.7095 -0.7870  2.5906
 2293TP3      O 6890   2.575   0.600   0.047  0.0435  0.0196  0.1969
 2293TP3     H1 6891   2.549   0.571   0.135 -1.2229 -2.1214 -0.7833
 2293TP3     H2 6892   2.666   0.571   0.038  0.1742  0.2441  0.7937
 2294TP3      O 6893   1.000   0.541   1.055  0.7610  0.3577  0.0438
 2294TP3     H1 6894   0.972   0.578   1.139  0.2841  0.2422 -0.0607
 2294TP3     H2 6895   0.921   0.501   1.019  1.0773 -0.0288 -0.2335
 2295TP3      O 6896   1.555   0.147   1.731 -0.6904  0.7406 -0.4320
 2295TP3     H1 6897   1.516   0.228   1.700  1.9093  2.0739 -0.4674
 2295TP3     H2 6898   1.584   0.167   1.820  1.1076  0.3050 -0.8791
 2296TP3      O 6899   3.020   0.374   2.311  0.7293 -0.2097  0.0391
 2296TP3     H1 6900   3.114   0.390   2.312  0.6476  0.2972 -0.3605
 2296TP3     H2 6901   3.009   0.297   2.254  0.7896  0.4856 -0.9298
 2297TP3      O 6902   3.850   5.323   1.599 -0.0989  0.3038  0.4309
 2297TP3     H1 6903   3.930   5.270   1.599  0.1577  0.6649 -0.6102
 2297TP3     H2 6904   3.847   5.363   1.686  1.1924  0.7911  0.2731
 2298TP3      O 6905   2.810   1.100   0.395 -0.2957 -0.8298  0.1559
 2298TP3     H1 6906   2.823   1.033   0.328 -2.3729  0.1268 -1.3236
 2298TP3     H2 6907   2.882   1.161   0.382 -0.5438 -0.7782 -1.0797
 2299TP3      O 6908   3.083   0.683   1.194  0.6254  0.4139  0.2379
 2299TP3     H1 6909   3.070   0.608   1.136  2.2654  0.0422  0.3225
 2299TP3     H2 6910   3.075   0.759   1.136 -1.7961  0.2793  0.2800
 2300TP3      O 6911   3.333   0.511   0.433 -0.1705 -0.1820 -0.0287
 2300TP3     H1 6912   3.309   0.588   0.486  1.3174  1.1894 -1.2512
 2300TP3     H2 6913   3.356   0.444   0.497  0.4152  1.0446  1.0867
 2301TP3      O 6914   2.449   1.666   0.496  0.5037 -0.0244  0.5364
 2301TP3     H1 6915   2.412   1.577   0.491  0.2568  0.1121 -0.3315
 2301TP3     H2 6916   2.530   1.655   0.545 -0.3961 -0.4234  1.9961
 2302TP3      O 6917   3.809   1.000   0.752  0.2207  0.2356  0.1050
 2302TP3     H1 6918   3.819   0.963   0.664 -0.4404  0.0574  0.0962
 2302TP3     H2 6919   3.898   1.020   0.780  0.6855 -1.9794  0.3627
 2303TP3      O 6920   4.091   0.380   5.672  0.0044  0.1959 -0.0729
 2303TP3     H1 6921   4.063   0.458   5.718 -0.7385 -0.6897  1.0256
 2303TP3     H2 6922   4.062   0.394   5.581 -0.7033  0.9048  0.2519
 2304TP3      O 6923   3.740   0.000   0.426 -0.0802 -0.4832  0.2125
 2304TP3     H1 6924   3.806   0.033   0.487 -1.0758 -0.1734  1.1730
 2304TP3     H2 6925   3.727   0.072   0.364 -0.5422  0.0396  0.8906
 2305TP3      O 6926   3.745   1.445   1.528 -0.6041 -0.0662  0.3430
 2305TP3     H1 6927   3.711   1.489   1.605 -0.8288 -0.9132  0.7369
 2305TP3     H2 6928   3.669   1.435   1.470 -1.3045 -2.6875  1.5619
 2306TP3      O 6929   3.420   1.620   1.437 -0.7961 -0.1526  0.5622
 2306TP3     H1 6930   3.326   1.635   1.426 -1.0744 -1.4285  1.1080
 2306TP3     H2 6931   3.435   1.532   1.405 -0.0576 -0.5392  1.8766
 2307TP3      O 6932   3.534   2.522   1.645  0.0374 -0.0330 -0.5071
 2307TP3     H1 6933   3.585   2.445   1.674 -1.1680 -0.7120 -0.1047
 2307TP3     H2 6934   3.514   2.504   1.554 -0.1989 -0.1793 -0.4279
 2308TP3      O 6935   2.771   0.827   1.078 -0.2851 -0.4087 -0.5350
 2308TP3     H1 6936   2.788   0.733   1.067  2.0837 -0.0273 -0.6488
 2308TP3     H2 6937   2.774   0.842   1.172 -3.8047 -0.8828 -0.2206
 2309TP3      O 6938   3.667   0.712   0.483 -0.0903 -0.4482  0.1002
 2309TP3     H1 6939   3.657   0.726   0.577  0.2248  0.2261  0.0414
 2309TP3     H2 6940   3.738   0.772   0.458 -0.9250  0.1974 -0.7589
 2310TP3      O 6941   2.451   5.605   1.312 -0.0237  0.0863  0.2459
 2310TP3     H1 6942   2.372   5.641   1.351  0.6399  0.9265  0.8596
 2310TP3     H2 6943   2.439   5.510   1.315 -2.7875  0.0988 -3.4021
 2311TP3      O 6944   1.878   1.075   1.982 -0.3806 -0.3335 -0.0203
 2311TP3     H1 6945   1.921   1.013   1.923 -1.3508 -1.3392  0.2897
 2311TP3     H2 6946   1.863   1.025   2.062 -2.2969 -0.0945 -0.1891
 2312TP3      O 6947   3.399   0.364   0.647  0.0282  0.8390  0.3482
 2312TP3     H1 6948   3.460   0.293   0.624 -0.6512  0.5124 -0.4790
 2312TP3     H2 6949   3.414   0.379   0.740  0.4253 -0.1543  0.4527
 2313TP3      O 6950   2.508   0.152   1.713 -0.1401  0.0654  0.1719
 2313TP3     H1 6951   2.600   0.147   1.738 -0.2739  2.0576  1.2986
 2313TP3     H2 6952   2.486   0.064   1.684  1.9448 -0.6130  0.4891
 2314TP3      O 6953   2.921   5.677   2.197 -0.4917 -0.3981  0.6754
 2314TP3     H1 6954   2.846   5.622   2.220 -2.0034  1.8183  1.2819
 2314TP3     H2 6955   2.929   5.738   2.270  0.0550  1.2566 -0.7276
 2315TP3      O 6956   1.913   1.485   1.229 -0.3448 -0.1678  0.0913
 2315TP3     H1 6957   1.950   1.398   1.243 -0.2514 -0.2421 -0.5797
 2315TP3     H2 6958   1.821   1.469   1.209 -0.4780 -0.0647  0.6136
 2316TP3      O 6959   3.100   1.550   0.349  0.0334 -0.0270 -0.3108
 2316TP3     H1 6960   3.030   1.524   0.289 -1.1516 -2.1202  1.8168
 2316TP3     H2 6961   3.062   1.620   0.402  0.6212  0.8859 -1.0549
 2317TP3      O 6962   2.724   5.953   1.447  0.0777 -0.0413 -0.1523
 2317TP3     H1 6963   2.711   5.859   1.460 -0.1416  0.1233  0.9102
 2317TP3     H2 6964   2.655   5.995   1.500  1.1203  0.7335  0.6521
 2318TP3      O 6965   3.255   1.805   0.186 -0.3853  0.9694  0.3423
 2318TP3     H1 6966   3.176   1.840   0.226 -0.9487 -0.4391  0.5207
 2318TP3     H2 6967   3.286   1.738   0.247 -0.5931 -0.3853 -0.9887
 2319TP3      O 6968   3.165   1.205   0.520  0.0073 -0.6048 -0.1282
 2319TP3     H1 6969   3.117   1.224   0.440  0.4856  0.7453 -0.1052
 2319TP3     H2 6970   3.254   1.186   0.491  0.4514  0.9442  0.1375
 2320TP3      O 6971   3.548   1.251   0.663  0.6592  0.7457  0.5636
 2320TP3     H1 6972   3.623   1.204   0.626 -3.3409 -3.4254 -3.5943
 2320TP3     H2 6973   3.530   1.320   0.600 -0.0206  0.5848  0.5784
 2321TP3      O 6974   2.744   1.473   1.333  0.3141 -0.3793 -0.1475
 2321TP3     H1 6975   2.745   1.401   1.396  0.3574 -0.3557 -0.1211
 2321TP3     H2 6976   2.682   1.537   1.370  0.7460 -0.1236  0.1434
 2322TP3      O 6977   1.681   0.376   0.535  0.0762 -0.0106  0.1784
 2322TP3     H1 6978   1.631   0.453   0.507  0.1977  0.6781  1.7767
 2322TP3     H2 6979   1.659   0.308   0.470 -2.0042  0.6090  0.1769
 2323TP3      O 6980   2.721   0.333   1.956  0.1533 -0.2867  0.0155
 2323TP3     H1 6981   2.673   0.404   1.912 -0.3641 -0.8237 -0.2957
 2323TP3     H2 6982   2.787   0.306   1.892  0.2257 -0.2179  0.0607
 2324TP3      O 6983   2.433   0.028   2.036 -0.2891 -0.7958  0.3677
 2324TP3     H1 6984   2.412   0.071   2.119  1.5441  0.7593  0.1050
 2324TP3     H2 6985   2.461   0.100   1.978 -3.1083 -1.5526 -2.2383
 2325TP3      O 6986   2.091   0.154   1.389 -0.0382  0.1732  1.0460
 2325TP3     H1 6987   2.111   0.118   1.303  2.2348  1.6893  0.8431
 2325TP3     H2 6988   2.113   0.083   1.450 -0.5019 -0.4982  0.4380
 2326TP3      O 6989   2.450   0.449   0.345 -0.1626 -0.0672  0.3911
 2326TP3     H1 6990   2.359   0.426   0.327  0.2079  0.2035 -2.2120
 2326TP3     H2 6991   2.498   0.366   0.338 -0.2020 -0.3333  2.4016
 2327TP3      O 6992   3.792   0.306   1.521 -0.7053 -0.1724 -0.5641
 2327TP3     H1 6993   3.705   0.268   1.513 -0.2026 -1.8988  1.3548
 2327TP3     H2 6994   3.841   0.267   1.448 -0.7070 -1.8727  0.2775
 2328TP3      O 6995   2.845   0.349   0.405  0.0867  0.6519  0.0418
 2328TP3     H1 6996   2.836   0.258   0.376  0.5775  0.3527  0.7863
 2328TP3     H2 6997   2.778   0.359   0.472 -1.1006  1.3635 -1.1993
 2329TP3      O 6998   1.585   0.448   5.941  0.5220  0.4449 -0.3774
 2329TP3     H1 6999   1.549   0.513   6.000  1.1114  0.5496 -0.1218
 2329TP3     H2 7000   1.679   0.466   5.940  1.1507 -1.9828  1.7503
 2330TP3      O 7001   1.332   1.628   2.560  0.0920  0.2761 -0.2050
 2330TP3     H1 7002   1.328   1.724   2.565  0.2401  0.2400  2.5208
 2330TP3     H2 7003   1.420   1.606   2.592 -0.8300 -0.7722  1.8378
 2331TP3      O 7004   2.405   1.116   0.509 -0.1753 -0.0675  0.0254
 2331TP3     H1 7005   2.345   1.134   0.437 -0.2702 -1.1122 -0.1829
 2331TP3     H2 7006   2.476   1.067   0.469 -0.1296 -0.4920  0.6041
 2332TP3      O 7007   3.701   1.110   1.662  0.0051 -1.0919 -0.1325
 2332TP3     H1 7008   3.637   1.116   1.733 -2.9518 -1.8989 -2.5221
 2332TP3     H2 7009   3.711   1.199   1.631  0.4438 -0.8954  0.5469
 2333TP3      O 7010   1.885   5.711   0.741  0.5169  0.0231  0.3565
 2333TP3     H1 7011   1.855   5.716   0.831 -1.3935 -0.6659 -0.1951
 2333TP3     H2 7012   1.862   5.622   0.713  0.1925  0.5290 -1.0790
 2334TP3      O 7013   3.653   5.973   0.043  0.0358 -0.4142 -0.4802
 2334TP3     H1 7014   3.602   5.972  -0.038 -1.4833  1.3850  0.3676
 2334TP3     H2 7015   3.610   5.908   0.099  0.2859 -0.7435 -0.6702
 2335TP3      O 7016   2.519   0.427   1.801  0.0183 -0.0017 -0.1899
 2335TP3     H1 7017   2.509   0.335   1.776 -0.1899 -0.6477  2.1014
 2335TP3     H2 7018   2.432   0.455   1.828 -0.1237  1.2046 -1.6950
 2336TP3      O 7019   2.808   2.073   1.956 -0.3330  0.3963 -0.0679
 2336TP3     H1 7020   2.715   2.047   1.958  0.1060 -1.7232 -2.4628
 2336TP3     H2 7021   2.814   2.134   1.883  0.3289 -0.2412 -0.5491
 2337TP3      O 7022   3.783   1.789   1.193  0.0255 -0.5954 -0.3261
 2337TP3     H1 7023   3.751   1.795   1.283  2.9644 -0.7593  0.8649
 2337TP3     H2 7024   3.782   1.695   1.174 -0.0647 -0.6161 -0.2172
 2338TP3      O 7025   2.873   1.167   1.933 -0.1801 -0.0382  0.1389
 2338TP3     H1 7026   2.795   1.122   1.901 -0.4425  0.9172 -0.5919
 2338TP3     H2 7027   2.921   1.099   1.981 -0.2096 -1.2938 -1.5169
 2339TP3      O 7028   4.162   0.141   0.283 -0.1798  0.7492  0.4742
 2339TP3     H1 7029   4.170   0.237   0.282  0.7509  0.7559 -2.7744
 2339TP3     H2 7030   4.113   0.120   0.204  2.3556 -1.5669 -0.6490
 2340TP3      O 7031   2.913   1.484   0.148  0.2808 -0.3041 -0.1479
 2340TP3     H1 7032   2.831   1.532   0.135  0.1988 -0.9457 -2.6248
 2340TP3     H2 7033   2.886   1.392   0.147  1.0041 -0.5247 -1.1675
 2341TP3      O 7034   2.705   1.353   0.029  0.3509  0.4808 -0.6739
 2341TP3     H1 7035   2.674   1.441   0.044 -1.4917 -0.2608  0.1102
 2341TP3     H2 7036   2.632   1.309  -0.015  0.0159 -1.4503  1.6209
 2342TP3      O 7037   2.984   1.391   1.293  0.6713  0.0763 -0.0081
 2342TP3     H1 7038   2.911   1.433   1.338  0.8031 -0.9329  1.1904
 2342TP3     H2 7039   2.966   1.298   1.299  0.5711 -0.1210 -2.3144
 2343TP3      O 7040   1.689  -0.025   0.927 -0.0567  0.6370 -0.3563
 2343TP3     H1 7041   1.682  -0.018   1.023 -0.0710  0.0726 -0.3123
 2343TP3     H2 7042   1.702   0.065   0.898 -4.1928  1.5309 -0.1696
 2344TP3      O 7043   2.382   0.876   1.755  0.0067 -0.9932 -0.1181
 2344TP3     H1 7044   2.334   0.806   1.710 -2.1828 -0.8819  1.8537
 2344TP3     H2 7045   2.358   0.867   1.847 -0.3187  2.2700  0.2437
 2345TP3      O 7046   1.672   5.934   1.177  0.7043  0.6010 -0.2730
 2345TP3     H1 7047   1.740   5.986   1.221  0.2230  1.1988 -0.2299
 2345TP3     H2 7048   1.618   5.899   1.247 -1.1698  3.0443 -0.3722
 2346TP3      O 7049   2.345   1.784   1.721  0.1532  0.2144  0.1836
 2346TP3     H1 7050   2.305   1.697   1.712  0.9932 -0.4560  2.2663
 2346TP3     H2 7051   2.419   1.770   1.780 -0.4393  2.5733  1.6093
 2347TP3      O 7052   2.136   1.282   1.023 -0.0035 -0.3109  0.1075
 2347TP3     H1 7053   2.074   1.256   0.955  0.4179 -0.3822 -0.2604
 2347TP3     H2 7054   2.147   1.204   1.077 -0.5998 -0.1502  0.4631
 2348TP3      O 7055   3.012   0.540   0.745 -0.1437  0.5418 -0.5143
 2348TP3     H1 7056   2.945   0.474   0.729  1.4495 -1.2960 -0.0355
 2348TP3     H2 7057   2.965   0.613   0.786 -1.6831 -1.1280  0.8545
 2349TP3      O 7058   1.776   0.800   5.938  0.4712 -0.1469 -0.0506
 2349TP3     H1 7059   1.770   0.794   6.033  1.0377  0.7036  0.0453
 2349TP3     H2 7060   1.843   0.866   5.922 -0.0497  0.1601 -1.0441
 2350TP3      O 7061   2.214   0.740   1.553  0.0163 -0.2644  0.6770
 2350TP3     H1 7062   2.203   0.805   1.483  0.2279  0.0969  0.9781
 2350TP3     H2 7063   2.141   0.679   1.541 -1.5850  1.3605  1.8424
 2351TP3      O 7064   3.708   0.569   1.992 -0.3547  0.9220  0.2016
 2351TP3     H1 7065   3.688   0.624   1.917 -1.1246  0.1911 -0.1515
 2351TP3     H2 7066   3.664   0.612   2.066  0.1733  1.4924  0.1914
 2352TP3      O 7067   3.693   0.537   0.096  0.2997 -0.4352 -0.0225
 2352TP3     H1 7068   3.705   0.577   0.010 -0.2334  2.1270  1.0073
 2352TP3     H2 7069   3.780   0.539   0.136  0.0507  1.0509  0.5206
 2353TP3      O 7070   3.592   0.832   0.727  0.4863 -0.3263  0.0200
 2353TP3     H1 7071   3.672   0.883   0.742  0.9374 -0.5207 -1.6393
 2353TP3     H2 7072   3.582   0.781   0.808  2.1862 -0.5121  0.1525
 2354TP3      O 7073   1.949   2.731   2.224  0.0074  0.0486  0.2235
 2354TP3     H1 7074   1.986   2.695   2.143 -1.4446  0.9731 -0.9057
 2354TP3     H2 7075   2.023   2.732   2.285  1.9676  1.8641 -1.9284
 2355TP3      O 7076   3.468   5.503   1.731  0.0963 -0.2839 -0.4455
 2355TP3     H1 7077   3.392   5.511   1.673 -1.0117 -2.4863  0.5634
 2355TP3     H2 7078   3.530   5.449   1.681 -0.1243 -0.7113 -0.2610
 2356TP3      O 7079   2.343   1.522   0.228 -0.0038 -0.4873  0.1655
 2356TP3     H1 7080   2.306   1.527   0.316  0.7561 -3.1427  0.7123
 2356TP3     H2 7081   2.289   1.458   0.182  1.6021 -1.6488 -0.1911
 2357TP3      O 7082   2.567   0.302   5.473 -0.7502  0.0607 -0.1670
 2357TP3     H1 7083   2.473   0.285   5.477 -0.5111 -1.5554 -0.7993
 2357TP3     H2 7084   2.594   0.266   5.388  0.4997  0.1999  0.1566
 2358TP3      O 7085   1.858   1.840   2.618  0.5572  0.2714 -0.3719
 2358TP3     H1 7086   1.896   1.919   2.657 -0.8419  0.2215  1.2319
 2358TP3     H2 7087   1.794   1.810   2.683  1.6560 -2.7212 -0.5143
 2359TP3      O 7088   2.906   0.077   1.317  0.9080  0.3643 -0.0740
 2359TP3     H1 7089   2.856   0.014   1.369  0.3081  2.0873  1.5669
 2359TP3     H2 7090   2.840   0.138   1.283  1.6539  1.2696  0.0622
 2360TP3      O 7091   2.918   1.072   5.901  0.3657  0.5073 -0.1340
 2360TP3     H1 7092   2.908   1.163   5.872 -1.5410  0.4755  0.3029
 2360TP3     H2 7093   2.859   1.022   5.845  1.9113 -0.6018 -0.8325
 2361TP3      O 7094   3.429   0.630   1.463  0.0391  0.3619 -0.1290
 2361TP3     H1 7095   3.424   0.718   1.426 -0.7489  0.1631 -0.5208
 2361TP3     H2 7096   3.338   0.601   1.466  0.1978 -0.0366  0.9806
 2362TP3      O 7097   3.340   1.958   1.418  0.4221  0.5636  0.2656
 2362TP3     H1 7098   3.342   2.014   1.495  2.3686 -1.4546  1.8329
 2362TP3     H2 7099   3.297   1.878   1.447 -1.4799  0.7904 -1.6438
 2363TP3      O 7100   1.704   0.378   1.159  0.1575 -0.3850  0.5600
 2363TP3     H1 7101   1.797   0.376   1.137  0.0021 -0.9139 -0.0852
 2363TP3     H2 7102   1.679   0.470   1.155  0.7620 -0.1794  1.2382
 2364TP3      O 7103   2.671   1.606   1.783  0.0767 -0.1908  0.0304
 2364TP3     H1 7104   2.721   1.546   1.838  0.2078  1.0851  1.3740
 2364TP3     H2 7105   2.615   1.654   1.844 -3.1104 -1.7446 -1.4201
 2365TP3      O 7106   2.585   5.875   5.600  0.0387 -0.0214 -1.0351
 2365TP3     H1 7107   2.538   5.927   5.534 -0.7026  0.9238  0.2075
 2365TP3     H2 7108   2.528   5.799   5.614 -0.1110  0.0939 -1.0152
 2366TP3      O 7109   3.524   0.715   0.969 -0.5380  0.0756  0.3692
 2366TP3     H1 7110   3.544   0.751   1.056  0.8388 -1.6442  0.8138
 2366TP3     H2 7111   3.467   0.640   0.987 -0.6705  0.0244 -0.2555
 2367TP3      O 7112   3.547   1.871   0.767  0.0515 -0.1275  0.0745
 2367TP3     H1 7113   3.455   1.854   0.748  0.4451 -1.0578 -1.1147
 2367TP3     H2 7114   3.561   1.961   0.737 -0.4945  0.0675  0.3884
 2368TP3      O 7115   1.377   2.245   1.610  0.2748 -0.0259  0.3402
 2368TP3     H1 7116   1.444   2.191   1.570 -1.8959 -2.0024 -0.8786
 2368TP3     H2 7117   1.392   2.333   1.575  2.2522 -0.3631  0.2561
 2369TP3      O 7118   2.717   0.460   0.650  0.2488  0.3115  0.1125
 2369TP3     H1 7119   2.728   0.398   0.722  1.1313  0.3045 -0.0157
 2369TP3     H2 7120   2.708   0.545   0.692  1.5252  0.4083  0.2241
 2370TP3      O 7121   2.076   0.923   1.121 -0.0559 -0.4415 -0.2686
 2370TP3     H1 7122   2.055   0.830   1.121  2.7629 -1.1695 -0.2319
 2370TP3     H2 7123   2.099   0.942   1.030 -1.1507  0.3933 -0.3885
 2371TP3      O 7124   3.024   0.411   5.795  0.0445 -0.1883  0.0161
 2371TP3     H1 7125   3.079   0.371   5.727 -0.3066 -0.0063 -0.3736
 2371TP3     H2 7126   3.059   0.499   5.806  1.1331 -0.7217  1.2193
 2372TP3      O 7127   3.058   1.331   0.997 -0.3979 -0.2851 -0.6143
 2372TP3     H1 7128   3.116   1.358   0.926 -1.5819  0.6884 -1.2319
 2372TP3     H2 7129   3.117   1.321   1.072  0.2609  3.6557 -0.4091
 2373TP3      O 7130   3.366   5.932   1.875 -0.1372 -0.4739 -0.3213
 2373TP3     H1 7131   3.439   5.898   1.927  0.0999 -0.5942 -0.7280
 2373TP3     H2 7132   3.363   5.874   1.798 -1.2398 -1.0462  0.1330
 2374TP3      O 7133   2.482   5.878   1.641  0.0007 -0.7748 -0.5353
 2374TP3     H1 7134   2.460   5.843   1.555 -1.8157 -2.1770  0.4358
 2374TP3     H2 7135   2.460   5.807   1.702 -0.5002  0.8294  1.2354
 2375TP3      O 7136   3.299   0.968   5.698 -0.4510  0.0566 -0.0994
 2375TP3     H1 7137   3.393   0.955   5.707 -0.4708 -0.5342 -0.6757
 2375TP3     H2 7138   3.262   0.939   5.781  0.0974  3.0731  1.3252
 2376TP3      O 7139   2.737   0.291   1.233 -0.2318 -0.4148  0.3297
 2376TP3     H1 7140   2.660   0.331   1.193 -0.8426 -1.6006  0.2624
 2376TP3     H2 7141   2.729   0.309   1.326 -1.0033 -1.1640  0.4205
 2377TP3      O 7142   2.798   0.726   0.722  0.0294 -0.4491 -0.0497
 2377TP3     H1 7143   2.743   0.750   0.796 -0.4302 -0.3641 -0.4127
 2377TP3     H2 7144   2.844   0.807   0.698  0.5795 -0.5971  0.4631
 2378TP3      O 7145   3.944   1.534   0.236 -0.1812  0.1789  0.0173
 2378TP3     H1 7146   4.030   1.576   0.234 -0.4684  0.7674 -0.4692
 2378TP3     H2 7147   3.962   1.441   0.226  0.3991  0.3018 -0.0850
 2379TP3      O 7148   2.344   1.768   1.117  0.7082 -0.0563 -0.2578
 2379TP3     H1 7149   2.394   1.701   1.070 -0.5175 -0.9000 -0.3871
 2379TP3     H2 7150   2.274   1.720   1.161  2.4395  0.4412  3.5108
 2380TP3      O 7151   3.951   0.782   1.467  0.1530  0.0191 -0.1749
 2380TP3     H1 7152   3.976   0.788   1.375 -2.5711 -1.0106 -1.0678
 2380TP3     H2 7153   3.901   0.701   1.474 -0.7344  0.6649  1.9351
 2381TP3      O 7154   4.509   1.618   0.069  0.0801  0.3436  0.4572
 2381TP3     H1 7155   4.528   1.630   0.163 -2.4735  2.6603  0.8090
 2381TP3     H2 7156   4.414   1.617   0.064  0.1380 -1.5166 -2.0129
 2382TP3      O 7157   2.770   0.600   1.226 -0.3518  0.2495  0.3008
 2382TP3     H1 7158   2.809   0.516   1.203  0.4880  0.9085 -0.7470
 2382TP3     H2 7159   2.804   0.618   1.314  2.0219  0.9303 -0.6689
 2383TP3      O 7160   2.249   2.627   1.035  0.1642 -0.5490 -0.2345
 2383TP3     H1 7161   2.183   2.565   1.004 -0.4195 -0.3150  0.4791
 2383TP3     H2 7162   2.330   2.602   0.991 -0.0159 -1.9437  0.1909
 2384TP3      O 7163   3.443   0.874   1.294  0.3072 -0.0575 -0.0071
 2384TP3     H1 7164   3.530   0.904   1.270  1.4451 -1.9923  1.4977
 2384TP3     H2 7165   3.416   0.817   1.221  0.7820 -0.3431  0.0405
 2385TP3      O 7166   2.679   0.701   5.641  0.2945 -0.6487 -0.5301
 2385TP3     H1 7167   2.638   0.665   5.562 -1.6532 -1.2831  0.7276
 2385TP3     H2 7168   2.719   0.626   5.684  0.5657 -0.4448 -0.4186
 2386TP3      O 7169   2.076   1.057   1.579 -0.5323 -0.1933 -0.1640
 2386TP3     H1 7170   2.128   1.039   1.500 -2.2540  0.7381 -1.6023
 2386TP3     H2 7171   2.139   1.089   1.643  0.5122  2.4827 -2.3480
 2387TP3      O 7172   2.246   0.207   1.875 -0.0408 -0.0227 -0.3867
 2387TP3     H1 7173   2.323   0.150   1.868  0.1170  0.2938 -1.3758
 2387TP3     H2 7174   2.235   0.220   1.969  2.0336  1.1453 -0.2470
 2388TP3      O 7175   3.245   0.009   0.710 -0.5096 -0.2022 -0.0427
 2388TP3     H1 7176   3.152   0.029   0.718 -0.4453 -0.2617  0.9837
 2388TP3     H2 7177   3.281   0.083   0.661 -0.8141  0.6615  1.0008
 2389TP3      O 7178   3.249   0.313   1.508 -0.2842 -0.3377 -0.0342
 2389TP3     H1 7179   3.183   0.249   1.482 -0.5777  0.0723 -0.3101
 2389TP3     H2 7180   3.198   0.391   1.532  0.1342  0.3053 -1.1596
 2390TP3      O 7181   0.835   5.547   0.522  0.3455 -0.0227 -0.0299
 2390TP3     H1 7182   0.847   5.583   0.434  0.7790  0.5737  0.2728
 2390TP3     H2 7183   0.822   5.453   0.507  1.3432 -0.0750 -0.6661
 2391TP3      O 7184   2.943   1.370   5.309  0.1574 -0.4168  0.0037
 2391TP3     H1 7185   2.889   1.446   5.286 -0.5160 -1.1934 -1.1071
 2391TP3     H2 7186   3.000   1.357   5.233  1.5923  0.0730  0.9475
 2392TP3      O 7187   2.165   0.545   0.593 -0.4189 -0.0496  0.5811
 2392TP3     H1 7188   2.122   0.567   0.676  0.1714  0.1510  0.8388
 2392TP3     H2 7189   2.252   0.515   0.618 -0.2318  0.0242  0.0345
 2393TP3      O 7190   3.673   1.738   1.431 -0.5445  0.2395  0.0710
 2393TP3     H1 7191   3.721   1.681   1.490 -0.2013  1.5463  1.0965
 2393TP3     H2 7192   3.586   1.698   1.425 -0.2129 -0.5714  0.4692
 2394TP3      O 7193   2.738   1.080   2.788 -0.6917 -0.3787 -0.6066
 2394TP3     H1 7194   2.683   1.020   2.838 -1.1692 -0.1922 -0.8995
 2394TP3     H2 7195   2.815   1.093   2.844 -0.1829 -1.9019 -0.9006
 2395TP3      O 7196   3.300   1.331   1.404 -0.1847 -0.4257 -0.1020
 2395TP3     H1 7197   3.208   1.355   1.392  0.2096  0.5151 -1.5117
 2395TP3     H2 7198   3.313   1.332   1.499 -1.5470 -0.2481  0.0999
 2396TP3      O 7199   1.474   2.979   1.584  0.1272 -0.0731 -0.0683
 2396TP3     H1 7200   1.442   3.005   1.670 -0.7289 -0.7288 -0.1694
 2396TP3     H2 7201   1.404   3.005   1.523  0.6170  0.1674 -0.5333
 2397TP3      O 7202   3.921   1.084   1.038  0.2716 -0.6769 -0.3341
 2397TP3     H1 7203   3.968   1.128   1.109  0.7447 -0.1022 -0.9779
 2397TP3     H2 7204   3.991   1.051   0.981 -0.0970 -1.5338 -0.2977
 2398TP3      O 7205   4.291   5.911   0.240  0.2078 -0.1205 -1.1020
 2398TP3     H1 7206   4.253   5.985   0.288  0.5375 -0.7890  0.2523
 2398TP3     H2 7207   4.225   5.842   0.246  0.5781 -0.4630 -0.9369
 2399TP3      O 7208   2.533   0.612   1.122  0.2684 -0.2628 -0.1332
 2399TP3     H1 7209   2.624   0.602   1.150  0.2806  0.6717  0.2087
 2399TP3     H2 7210   2.538   0.664   1.042  0.0032  0.5242  0.3430
 2400TP3      O 7211   3.074   0.787   1.600  0.6474  0.4450  0.5611
 2400TP3     H1 7212   3.164   0.820   1.603  0.0355  2.4961 -1.0845
 2400TP3     H2 7213   3.028   0.849   1.543 -0.8838 -2.7765 -2.0522
 2401TP3      O 7214   4.225   1.521   2.193  0.1050  0.7147 -0.1564
 2401TP3     H1 7215   4.202   1.540   2.102 -1.4573 -0.2520 -0.0140
 2401TP3     H2 7216   4.221   1.605   2.237  0.8860  1.1942 -0.9805
 2402TP3      O 7217   2.973   1.214   5.538  0.6482  0.0938 -0.4172
 2402TP3     H1 7218   2.898   1.226   5.596  1.1045  0.2111  0.1604
 2402TP3     H2 7219   2.962   1.280   5.470 -0.2115 -0.4422 -0.8141
 2403TP3      O 7220   2.717   1.915   0.961  0.3820  0.6353 -0.1915
 2403TP3     H1 7221   2.723   1.842   1.022  1.9744 -1.0433 -2.2362
 2403TP3     H2 7222   2.624   1.940   0.963 -0.4533 -2.1730 -0.2426
 2404TP3      O 7223   2.718   0.338   0.930  0.5537  0.5151 -0.0538
 2404TP3     H1 7224   2.792   0.349   0.990 -0.3111  2.7811  0.6898
 2404TP3     H2 7225   2.705   0.243   0.926  2.5972  0.1356  0.8884
 2405TP3      O 7226   3.201   0.311   5.573 -0.1483  0.5572  0.0659
 2405TP3     H1 7227   3.144   0.247   5.529  0.7301 -0.4351  0.3153
 2405TP3     H2 7228   3.230   0.369   5.503 -0.1010  0.0244 -0.3616
 2406TP3      O 7229   3.678   1.289   0.222  0.4652  0.1092  0.0067
 2406TP3     H1 7230   3.712   1.377   0.208 -0.2504  0.4146  0.1076
 2406TP3     H2 7231   3.752   1.239   0.255  0.7155  0.8461  0.5867
 2407TP3      O 7232   2.010   0.670   1.951  0.9490  0.4086 -0.3290
 2407TP3     H1 7233   1.995   0.715   2.035  0.0507 -0.0622 -0.2281
 2407TP3     H2 7234   1.988   0.736   1.885  0.3467  0.3675 -0.1808
 2408TP3      O 7235   1.552   1.191   0.752  0.2785  0.1017  0.2247
 2408TP3     H1 7236   1.624   1.171   0.811  1.8006 -1.4098 -1.9803
 2408TP3     H2 7237   1.499   1.111   0.751  0.0091  0.2820 -0.0666
 2409TP3      O 7238   2.286   1.525   2.340  0.0451 -0.0970 -0.0179
 2409TP3     H1 7239   2.367   1.473   2.336 -0.3828 -0.8384  0.7263
 2409TP3     H2 7240   2.288   1.566   2.426 -0.7316 -0.7172  0.3036
 2410TP3      O 7241   3.689   5.935   1.405 -0.0168  0.1966  0.1644
 2410TP3     H1 7242   3.723   5.846   1.390  2.4285  1.1540 -0.3966
 2410TP3     H2 7243   3.737   5.966   1.482  0.5763  1.6691 -0.7575
 2411TP3      O 7244   2.885   0.175   5.875  0.0235  0.1121 -0.1300
 2411TP3     H1 7245   2.927   0.260   5.859  0.8644 -0.5143 -1.4363
 2411TP3     H2 7246   2.797   0.185   5.838 -0.8547  1.2426  2.1030
 2412TP3      O 7247   3.122   0.547   1.436  0.0180  0.2811  0.8053
 2412TP3     H1 7248   3.067   0.586   1.504 -0.1861  1.0797  0.1835
 2412TP3     H2 7249   3.102   0.596   1.357 -4.0042 -4.0208 -1.3420
 2413TP3      O 7250   2.420   1.190   1.381  0.2694  0.2176 -0.1478
 2413TP3     H1 7251   2.495   1.212   1.325  0.6515  2.2533  1.0859
 2413TP3     H2 7252   2.446   1.108   1.423  2.0371  1.0660  0.5457
 2414TP3      O 7253   2.552   1.302   0.655  0.6370  0.8374 -0.2691
 2414TP3     H1 7254   2.509   1.238   0.598 -0.7411 -0.5289  2.1078
 2414TP3     H2 7255   2.641   1.270   0.664  0.3125 -0.0501 -0.1114
 2415TP3      O 7256   2.946   5.877   2.016  0.0420  0.1045  0.1575
 2415TP3     H1 7257   2.954   5.811   2.085  0.0279  0.4654  0.5079
 2415TP3     H2 7258   2.852   5.894   2.009 -0.0439 -0.6320 -0.6240
 2416TP3      O 7259   2.876   5.517   1.215  0.0573 -0.4957  0.0760
 2416TP3     H1 7260   2.800   5.469   1.246  0.6827 -0.7912  1.1900
 2416TP3     H2 7261   2.951   5.469   1.250  0.7612 -0.1069 -0.8492
 2417TP3      O 7262   1.921   1.503   0.264 -0.6940  0.1361  0.1115
 2417TP3     H1 7263   1.992   1.468   0.317  1.3793  1.6818 -1.4771
 2417TP3     H2 7264   1.855   1.531   0.328 -0.3729 -2.1859  1.5859
 2418TP3      O 7265   3.010   1.892   1.254  0.1485 -0.2453 -0.1317
 2418TP3     H1 7266   3.043   1.846   1.177 -2.2218 -1.7794 -0.3555
 2418TP3     H2 7267   2.988   1.979   1.223  0.4504 -0.4314 -0.8768
 2419TP3      O 7268   2.670   5.829   0.405  0.2315 -0.1213  0.0186
 2419TP3     H1 7269   2.719   5.832   0.322  1.4243  0.5504  0.7094
 2419TP3     H2 7270   2.624   5.745   0.403  0.9022 -0.4891 -0.9627
 2420TP3      O 7271   3.543   0.988   5.872  0.1783 -0.0694 -0.4308
 2420TP3     H1 7272   3.603   0.948   5.935 -0.0798  0.2820  0.0384
 2420TP3     H2 7273   3.487   1.044   5.924 -1.2860 -1.2266 -0.7043
 2421TP3      O 7274   4.898   0.488   1.303 -0.2843 -0.6952 -0.4658
 2421TP3     H1 7275   4.808   0.467   1.278 -0.4653 -2.3533  1.3552
 2421TP3     H2 7276   4.889   0.552   1.374 -0.0180 -0.6410 -0.4789
 2422TP3      O 7277   1.983   0.587   1.479  0.2477  0.0814  0.5421
 2422TP3     H1 7278   1.999   0.505   1.526  0.1114 -0.3699 -0.1879
 2422TP3     H2 7279   1.893   0.609   1.500  0.1824 -0.1280  0.4884
 2423TP3      O 7280   2.873   1.953   0.032 -0.1280 -0.0563 -0.0994
 2423TP3     H1 7281   2.934   1.997  -0.027 -0.1839  1.2173  0.7436
 2423TP3     H2 7282   2.878   2.004   0.113 -1.9570 -0.2100  0.1445
 2424TP3      O 7283   2.220   0.959   1.370  0.6624 -0.2360  0.2774
 2424TP3     H1 7284   2.304   0.998   1.347  0.2760  0.3719 -0.1198
 2424TP3     H2 7285   2.171   0.956   1.288  0.5854 -1.3373  0.3424
 2425TP3      O 7286   2.177   0.822   2.851  0.1313  0.1874 -0.5003
 2425TP3     H1 7287   2.197   0.910   2.883  0.1116 -0.0540  0.2135
 2425TP3     H2 7288   2.106   0.792   2.908  1.1161 -0.8468  0.2437
 2426TP3      O 7289   1.561   5.310   1.430 -0.2061 -0.6036 -0.1641
 2426TP3     H1 7290   1.490   5.356   1.477 -0.9736 -0.1786 -1.6748
 2426TP3     H2 7291   1.557   5.220   1.463 -1.7963 -0.7110 -0.5772
 2427TP3      O 7292   1.815   1.094   3.427  0.2583 -0.5981  0.2356
 2427TP3     H1 7293   1.898   1.128   3.460  1.0199 -1.7312 -0.4272
 2427TP3     H2 7294   1.840   1.041   3.351 -1.1911 -0.0532 -0.6630
 2428TP3      O 7295   3.525   2.009   2.835 -0.0433  0.2357  0.3073
 2428TP3     H1 7296   3.512   1.915   2.850  0.0294  0.3611  1.2112
 2428TP3     H2 7297   3.611   2.027   2.874  0.6255  0.4008 -1.1563
 2429TP3      O 7298   3.500   0.057   2.487 -0.5034 -0.0323  0.2443
 2429TP3     H1 7299   3.454   0.113   2.549 -1.7960 -0.6831 -0.0869
 2429TP3     H2 7300   3.439  -0.016   2.471  0.1011 -0.2517 -1.2040
 2430TP3      O 7301   3.418   0.462   1.802 -0.6496  0.0652 -0.7715
 2430TP3     H1 7302   3.448   0.419   1.882  0.2970 -0.0247 -1.1707
 2430TP3     H2 7303   3.463   0.416   1.731  0.0294  1.3977 -1.2387
 2431TP3      O 7304   3.215   0.974   3.043  0.9643  0.7416 -0.2421
 2431TP3     H1 7305   3.219   1.068   3.059  0.7276  0.4280  1.9147
 2431TP3     H2 7306   3.278   0.936   3.104  0.0078 -0.5974 -0.0329
 2432TP3      O 7307   2.708   5.713   3.613 -0.7370 -0.9155 -0.5202
 2432TP3     H1 7308   2.639   5.778   3.628  1.7181  1.5936  0.8951
 2432TP3     H2 7309   2.770   5.728   3.684  1.7437 -2.3744 -2.2468
 2433TP3      O 7310   2.664   0.579   2.493  0.0844 -0.5940 -0.6634
 2433TP3     H1 7311   2.687   0.661   2.537 -1.7454 -1.1461  1.4390
 2433TP3     H2 7312   2.717   0.512   2.537 -0.1496 -0.8714 -0.8024
 2434TP3      O 7313   3.068   1.747   3.931 -0.3854  0.6655 -0.2223
 2434TP3     H1 7314   3.119   1.811   3.881 -1.8137  2.0700  0.0198
 2434TP3     H2 7315   2.992   1.729   3.876  0.6471 -2.0150 -0.9477
 2435TP3      O 7316   2.258   2.080   3.272  0.0856  0.5393 -0.5424
 2435TP3     H1 7317   2.271   2.171   3.247 -1.0207  0.4855 -1.3654
 2435TP3     H2 7318   2.319   2.067   3.345  0.2768  1.9200 -0.4252
 2436TP3      O 7319   2.792   1.559   3.098  0.3468  0.1138 -0.2777
 2436TP3     H1 7320   2.783   1.645   3.057  3.2422  1.2412  1.1635
 2436TP3     H2 7321   2.713   1.551   3.152  0.2655  2.1620  0.0076
 2437TP3      O 7322   1.849   0.450   3.304  0.0306  0.4782  0.1586
 2437TP3     H1 7323   1.911   0.378   3.311 -2.3825 -1.9095 -1.4007
 2437TP3     H2 7324   1.802   0.451   3.388  0.1368  0.3036  0.2181
 2438TP3      O 7325   3.598   0.921   2.574  0.4190  0.0671  0.0993
 2438TP3     H1 7326   3.549   0.989   2.621 -0.7357  0.1821 -1.1956
 2438TP3     H2 7327   3.554   0.840   2.598  1.3327 -0.1665  1.0593
 2439TP3      O 7328   1.999   1.183   2.810  0.2173 -0.2495  0.1904
 2439TP3     H1 7329   2.000   1.196   2.905 -0.9826  0.2604  0.1624
 2439TP3     H2 7330   1.906   1.177   2.789  0.5166 -1.5716 -0.8085
 2440TP3      O 7331   3.031   1.012   4.128  1.1989 -0.4613 -0.3647
 2440TP3     H1 7332   3.060   1.103   4.138  0.7612 -0.4007  0.4752
 2440TP3     H2 7333   2.937   1.019   4.109  1.2194 -0.7317 -0.5708
 2441TP3      O 7334   2.285   1.073   2.959  0.0751 -0.0188 -0.3614
 2441TP3     H1 7335   2.326   1.158   2.946 -1.0110  0.3623 -1.4744
 2441TP3     H2 7336   2.197   1.094   2.991  0.1834 -0.7738  0.4961
 2442TP3      O 7337   3.104   1.296   2.909 -0.5108  0.5565 -0.2129
 2442TP3     H1 7338   3.014   1.324   2.895  0.0379  2.8887  0.4139
 2442TP3     H2 7339   3.125   1.327   2.998  0.7256 -0.4731 -0.1135
 2443TP3      O 7340   1.942   1.478   4.899  0.1758  0.4180  0.1320
 2443TP3     H1 7341   1.911   1.501   4.812 -2.3444 -0.9044  0.5813
 2443TP3     H2 7342   1.901   1.393   4.918 -0.3110  1.1681  3.0095
 2444TP3      O 7343   2.543   0.227   0.380 -0.1476 -0.3233  0.3295
 2444TP3     H1 7344   2.502   0.144   0.403 -1.2598  0.3248  0.7694
 2444TP3     H2 7345   2.631   0.203   0.350  0.0808 -1.5118  1.8582
 2445TP3      O 7346   2.992   1.217   3.827  0.3575  0.2518 -0.2828
 2445TP3     H1 7347   3.064   1.193   3.885  0.7523  1.2831 -0.3353
 2445TP3     H2 7348   3.008   1.167   3.747  1.8161  1.5194 -0.8272
 2446TP3      O 7349   2.633   0.760   3.446 -0.5232 -0.1195  0.4008
 2446TP3     H1 7350   2.650   0.676   3.490 -0.5246 -0.8742 -0.9922
 2446TP3     H2 7351   2.542   0.781   3.470 -0.5080 -0.4830  0.7961
 2447TP3      O 7352   4.202   1.551   1.926  0.0256 -0.0683  0.0652
 2447TP3     H1 7353   4.122   1.498   1.923  0.8547 -1.3807  0.2670
 2447TP3     H2 7354   4.190   1.617   1.858 -0.5645 -1.2424 -1.0128
 2448TP3      O 7355   1.821   1.852   1.942 -0.2291 -0.6014  0.0346
 2448TP3     H1 7356   1.805   1.793   2.016 -0.1186 -0.0400  0.5195
 2448TP3     H2 7357   1.907   1.828   1.909 -0.5759 -1.3242 -0.3673
 2449TP3      O 7358   3.803   1.180   2.778  0.3290 -0.0184 -0.7573
 2449TP3     H1 7359   3.803   1.176   2.874 -1.1843 -1.6855 -0.7678
 2449TP3     H2 7360   3.813   1.088   2.751  2.8999  0.6000 -2.2665
 2450TP3      O 7361   3.168   0.696   2.320  1.1107 -0.0603 -0.3089
 2450TP3     H1 7362   3.098   0.707   2.385  1.2672 -1.7868  0.1929
 2450TP3     H2 7363   3.224   0.627   2.356  2.3958  0.4316 -1.2940
 2451TP3      O 7364   1.503   0.909   3.997 -0.3430 -0.7745 -0.4816
 2451TP3     H1 7365   1.543   0.876   3.917  2.2853 -2.1762  1.2773
 2451TP3     H2 7366   1.559   0.981   4.025 -0.4552 -1.1252  0.7305
 2452TP3      O 7367   2.685   1.675   2.456  0.0023  0.3137 -0.1704
 2452TP3     H1 7368   2.665   1.763   2.487 -0.6591  0.1890 -0.2210
 2452TP3     H2 7369   2.658   1.618   2.528  0.0077  0.1306 -0.3129
 2453TP3      O 7370   3.143   1.959   3.368 -0.4351  0.0427  0.2173
 2453TP3     H1 7371   3.053   1.936   3.395 -0.1459 -0.2074  1.0134
 2453TP3     H2 7372   3.143   2.055   3.365 -0.8271  0.0344 -0.1436
 2454TP3      O 7373   3.318   0.240   3.507  0.2957  0.3543  0.1847
 2454TP3     H1 7374   3.270   0.242   3.424 -1.1346 -0.1136  0.9576
 2454TP3     H2 7375   3.355   0.152   3.512  2.0883  1.0032 -0.8383
 2455TP3      O 7376   2.689   1.024   3.351 -0.0036 -0.3497  0.3925
 2455TP3     H1 7377   2.783   1.041   3.362 -0.3556  1.0190  1.7555
 2455TP3     H2 7378   2.681   0.929   3.359  1.2288 -0.4657  0.5768
 2456TP3      O 7379   3.512   0.915   2.012 -0.0636  0.4812  0.0278
 2456TP3     H1 7380   3.583   0.971   2.043  0.1587 -0.9945  2.4012
 2456TP3     H2 7381   3.556   0.848   1.960 -0.0417  0.9464 -0.5752
 2457TP3      O 7382   2.721   2.416   3.471  0.3225  0.3347 -0.5152
 2457TP3     H1 7383   2.767   2.488   3.513 -1.3654  1.1472  0.0591
 2457TP3     H2 7384   2.628   2.439   3.480 -0.1763 -0.3061 -3.2312
 2458TP3      O 7385   2.136   0.844   4.007  0.4774 -0.0556  0.9548
 2458TP3     H1 7386   2.220   0.887   4.021 -0.1441  0.3030  4.5297
 2458TP3     H2 7387   2.078   0.913   3.976  0.8648  0.3299  1.0901
 2459TP3      O 7388   2.986   2.207   3.213  0.5515 -0.6634 -0.2828
 2459TP3     H1 7389   2.987   2.291   3.167  1.4273 -0.0543  0.7981
 2459TP3     H2 7390   3.028   2.146   3.153  4.3659  0.7372  0.7033
 2460TP3      O 7391   3.219   1.500   1.863 -0.0953 -0.4538 -0.3793
 2460TP3     H1 7392   3.147   1.451   1.825 -2.3067  0.3155  2.4861
 2460TP3     H2 7393   3.233   1.461   1.949  0.5857  1.5611  0.4884
 2461TP3      O 7394   1.850   1.337   2.052  0.7420 -0.0345  0.4104
 2461TP3     H1 7395   1.855   1.359   1.959 -0.6643 -0.5738  0.1706
 2461TP3     H2 7396   1.822   1.245   2.052 -2.7429  0.8903  1.3022
 2462TP3      O 7397   3.516   0.313   2.339 -0.1396 -0.6079  0.4333
 2462TP3     H1 7398   3.528   0.232   2.389  0.7743  1.0345  3.0818
 2462TP3     H2 7399   3.602   0.330   2.300 -0.1807 -0.6066  0.3420
 2463TP3      O 7400   3.337   1.178   2.555 -0.1715  0.4015  0.8392
 2463TP3     H1 7401   3.266   1.128   2.596  0.7021  0.1879  2.1320
 2463TP3     H2 7402   3.361   1.244   2.620  1.7997 -0.4714  1.0637
 2464TP3      O 7403   2.985   0.282   1.837 -0.1369  0.3109  0.3569
 2464TP3     H1 7404   3.042   0.212   1.871 -0.8625  0.3546  1.7615
 2464TP3     H2 7405   3.044   0.355   1.820  1.1836 -1.5160 -4.1957
 2465TP3      O 7406   2.981   1.046   3.586  0.4296  0.4874  0.3658
 2465TP3     H1 7407   3.023   0.974   3.632  0.0167  0.1040  0.1451
 2465TP3     H2 7408   2.887   1.033   3.600  0.3085  0.4865 -0.4068
 2466TP3      O 7409   3.496   0.886   3.563 -1.4387 -0.2327 -0.1368
 2466TP3     H1 7410   3.514   0.818   3.498  2.3950  0.0524  0.4044
 2466TP3     H2 7411   3.516   0.844   3.647  3.3131  1.8798  0.0978
 2467TP3      O 7412   2.268   0.695   3.747 -0.2807  0.1561 -0.1836
 2467TP3     H1 7413   2.326   0.690   3.823 -1.6423 -0.0018  0.8773
 2467TP3     H2 7414   2.202   0.628   3.762 -2.5627  2.3598  0.2341
 2468TP3      O 7415   3.217   1.560   2.543 -0.0222 -0.1441 -0.3979
 2468TP3     H1 7416   3.139   1.517   2.507  0.0705 -0.9461  0.3208
 2468TP3     H2 7417   3.279   1.561   2.470  0.1606 -1.7435 -0.3051
 2469TP3      O 7418   2.111   0.503   2.730  0.0054 -0.0998  0.1298
 2469TP3     H1 7419   2.185   0.453   2.697  3.1612  1.7631  3.5783
 2469TP3     H2 7420   2.077   0.549   2.654  1.5950 -1.9654 -1.8158
 2470TP3      O 7421   2.161   1.398   2.709 -0.1272  0.0187 -0.2506
 2470TP3     H1 7422   2.117   1.315   2.731  0.0508  0.1349  0.5881
 2470TP3     H2 7423   2.091   1.453   2.674 -0.1194 -0.7069 -1.4623
 2471TP3      O 7424   2.781   0.827   2.274 -0.4056  0.0213  0.3296
 2471TP3     H1 7425   2.806   0.736   2.262  0.0224  0.3456 -1.6289
 2471TP3     H2 7426   2.829   0.855   2.352 -1.1016 -1.5923  1.3852
 2472TP3      O 7427   2.856   0.436   3.341  0.6623 -0.4326 -0.1942
 2472TP3     H1 7428   2.857   0.341   3.350 -3.0293 -0.6830 -1.1049
 2472TP3     H2 7429   2.825   0.452   3.252  0.5582  1.6228  0.1525
 2473TP3      O 7430   2.118   1.297   2.379  0.0060 -0.0681  0.3786
 2473TP3     H1 7431   2.190   1.276   2.438  0.8990 -1.5520 -1.1473
 2473TP3     H2 7432   2.142   1.382   2.342  0.7245 -0.3208  0.2502
 2474TP3      O 7433   2.873   0.546   2.159 -0.3912  0.2185 -0.3706
 2474TP3     H1 7434   2.878   0.486   2.085  3.0392 -1.6463  1.1213
 2474TP3     H2 7435   2.912   0.498   2.233  1.2748  3.6827  1.3089
 2475TP3      O 7436   2.991   1.037   2.345 -0.6897  0.0163 -0.0048
 2475TP3     H1 7437   2.910   1.052   2.394 -0.3526  1.0118  0.2806
 2475TP3     H2 7438   3.046   0.985   2.404  0.3282  2.5225  1.3978
 2476TP3      O 7439   1.975   2.038   3.288 -0.3653  0.3258 -0.2017
 2476TP3     H1 7440   2.066   2.066   3.292  0.4408 -2.1006  0.6247
 2476TP3     H2 7441   1.965   1.979   3.364 -2.1644 -0.6269 -1.1119
 2477TP3      O 7442   4.020   0.281   3.025 -0.3733  0.3823  0.1366
 2477TP3     H1 7443   4.111   0.290   3.051 -0.7332 -0.3762  1.7408
 2477TP3     H2 7444   4.015   0.328   2.941  1.5717  0.0357 -0.2271
 2478TP3      O 7445   3.873   1.537   3.087  0.2514 -0.8466 -0.5575
 2478TP3     H1 7446   3.877   1.501   3.175  2.6479  0.8664  0.1163
 2478TP3     H2 7447   3.790   1.585   3.085 -1.5825 -3.7314 -0.5385
 2479TP3      O 7448   1.265   0.845   3.415 -0.0544 -0.0936 -0.1619
 2479TP3     H1 7449   1.217   0.784   3.359 -0.1613  1.7764 -2.2614
 2479TP3     H2 7450   1.351   0.851   3.375 -0.6565  2.5562 -1.2711
 2480TP3      O 7451   2.932   0.304   3.001 -0.0259 -0.1171 -0.2402
 2480TP3     H1 7452   2.972   0.221   3.025 -0.4802 -0.9201 -2.1226
 2480TP3     H2 7453   3.006   0.361   2.982  0.2787 -0.1287  0.8049
 2481TP3      O 7454   2.625   0.888   4.123  0.0415  0.4752  0.1667
 2481TP3     H1 7455   2.537   0.903   4.089  0.4529 -0.3039 -1.3327
 2481TP3     H2 7456   2.619   0.909   4.216 -1.3658  1.8068 -0.1893
 2482TP3      O 7457   2.584   2.227   2.462  0.6042  0.3657  0.5381
 2482TP3     H1 7458   2.514   2.285   2.492  0.5141  0.1642  0.7150
 2482TP3     H2 7459   2.615   2.268   2.381 -1.3213 -0.7960 -0.8739
 2483TP3      O 7460   0.936   1.009   2.551 -0.0746  0.1257  0.1847
 2483TP3     H1 7461   0.972   0.965   2.474 -0.9556  0.1463 -0.2492
 2483TP3     H2 7462   0.946   1.102   2.532 -1.9666  0.1683 -0.7450
 2484TP3      O 7463   3.424   2.133   2.228  0.7626  0.1017 -0.2837
 2484TP3     H1 7464   3.408   2.084   2.309  0.4850 -1.4289 -1.2348
 2484TP3     H2 7465   3.336   2.156   2.197  0.8409  0.1432 -0.4764
 2485TP3      O 7466   2.574   1.317   2.777  0.2289 -0.1186 -0.7204
 2485TP3     H1 7467   2.504   1.304   2.840  1.2675  2.3249  1.0605
 2485TP3     H2 7468   2.591   1.229   2.742 -0.1408 -1.6966  2.6940
 2486TP3      O 7469   3.338   0.395   2.765 -0.5152 -0.1469 -0.3846
 2486TP3     H1 7470   3.332   0.322   2.703 -0.4768 -0.3810 -0.1175
 2486TP3     H2 7471   3.400   0.364   2.831 -0.8899 -0.0732  0.0041
 2487TP3      O 7472   1.955   1.970   3.569 -0.5015  0.3310 -0.1743
 2487TP3     H1 7473   1.956   1.882   3.532  0.9725 -0.4037  1.4422
 2487TP3     H2 7474   2.046   2.000   3.560 -0.5905  0.9616  0.8650
 2488TP3      O 7475   3.032   1.565   2.750  0.3457  0.3521  0.0446
 2488TP3     H1 7476   3.018   1.542   2.658  0.2265  1.2555 -0.1675
 2488TP3     H2 7477   2.979   1.502   2.798  0.9315 -0.5668 -0.4619
 2489TP3      O 7478   2.223   5.808   3.678 -0.7098 -0.2700  0.1875
 2489TP3     H1 7479   2.131   5.792   3.655 -1.5163  0.0145  2.7765
 2489TP3     H2 7480   2.246   5.889   3.632 -1.8144 -0.2472 -0.3560
 2490TP3      O 7481   3.658   0.747   3.205  0.0522 -0.3029 -0.2639
 2490TP3     H1 7482   3.593   0.735   3.274 -0.3637  0.5489 -0.4924
 2490TP3     H2 7483   3.626   0.822   3.154  2.0368  1.2348  0.6079
 2491TP3      O 7484   1.355   0.028   1.352 -0.0687  0.5092 -0.5320
 2491TP3     H1 7485   1.339   0.061   1.263 -0.5119  2.5744  0.2421
 2491TP3     H2 7486   1.392   0.103   1.398  1.0371 -0.8001  0.8078
 2492TP3      O 7487   2.284   1.753   3.063  0.1656  0.1042  0.2025
 2492TP3     H1 7488   2.305   1.774   3.154  0.1876 -0.1320  0.2514
 2492TP3     H2 7489   2.197   1.792   3.048 -1.0656 -2.1058  1.1233
 2493TP3      O 7490   2.976   1.407   2.492 -0.4866  0.0601 -0.1616
 2493TP3     H1 7491   2.973   1.312   2.480 -0.5409  0.1167 -0.6169
 2493TP3     H2 7492   2.962   1.442   2.404 -2.3045  0.5201  0.2725
 2494TP3      O 7493   2.529   0.924   3.059  0.7424 -0.5727 -0.7368
 2494TP3     H1 7494   2.567   0.891   2.978  1.3065  0.6017 -0.9670
 2494TP3     H2 7495   2.470   0.994   3.032  1.1387  0.0067 -0.1281
 2495TP3      O 7496   3.645   1.004   2.983  0.1180 -0.0898 -0.1339
 2495TP3     H1 7497   3.706   1.073   3.009 -2.0062  1.8495  0.0623
 2495TP3     H2 7498   3.559   1.047   2.981 -1.4136 -2.8382  0.4105
 2496TP3      O 7499   2.150   5.355   1.912 -0.5831 -0.1882 -0.1220
 2496TP3     H1 7500   2.108   5.336   1.996  1.3411 -1.4828  0.6300
 2496TP3     H2 7501   2.157   5.270   1.869 -0.8415  0.3500 -1.2439
 2497TP3      O 7502   2.197   0.349   2.101 -0.2955 -0.5377 -0.5891
 2497TP3     H1 7503   2.240   0.417   2.049 -0.4589  0.2512  0.2771
 2497TP3     H2 7504   2.120   0.393   2.137 -0.4328 -1.2069 -0.0689
 2498TP3      O 7505   2.343   0.553   2.014  0.2923  0.2946 -0.2335
 2498TP3     H1 7506   2.311   0.639   1.991 -1.5293  0.0169  1.0656
 2498TP3     H2 7507   2.417   0.570   2.073 -0.0017  0.9752 -0.0553
 2499TP3      O 7508   2.129   5.874   2.397  0.2576 -0.5586 -0.1482
 2499TP3     H1 7509   2.187   5.855   2.323  0.1869  0.8277 -0.5924
 2499TP3     H2 7510   2.041   5.865   2.360  0.2221  0.4161 -0.3425
 2500TP3      O 7511   2.350   0.490   1.473 -0.1974 -0.5496  0.4080
 2500TP3     H1 7512   2.279   0.447   1.521 -0.3410 -0.4834  0.2546
 2500TP3     H2 7513   2.328   0.583   1.478  0.7074 -0.3770  1.7306
 2501TP3      O 7514   2.667   1.207   3.669 -0.2306  0.3787 -0.1466
 2501TP3     H1 7515   2.634   1.248   3.749 -0.7207  0.2811 -0.2950
 2501TP3     H2 7516   2.679   1.115   3.692 -1.8933  0.0175 -0.6223
 2502TP3      O 7517   3.287   1.375   2.740 -0.1698  0.3743  0.4605
 2502TP3     H1 7518   3.226   1.338   2.803  0.2387  0.7020  1.0639
 2502TP3     H2 7519   3.235   1.439   2.691 -1.3303 -2.0959 -1.7497
 2503TP3      O 7520   1.861   1.729   2.187  0.2561  0.1252  0.4019
 2503TP3     H1 7521   1.849   1.789   2.261  0.9889 -0.4743  1.0262
 2503TP3     H2 7522   1.955   1.711   2.186  0.3339  0.5335 -1.0161
 2504TP3      O 7523   2.658   1.976   2.495  0.1669  0.4269 -0.0239
 2504TP3     H1 7524   2.620   1.949   2.578  0.8321 -0.3874  0.0334
 2504TP3     H2 7525   2.621   2.063   2.478 -0.2331  0.4555  0.9488
 2505TP3      O 7526   2.418   0.384   1.220 -0.1148  0.2659 -0.0578
 2505TP3     H1 7527   2.413   0.428   1.305  4.3936 -1.2805  1.3006
 2505TP3     H2 7528   2.466   0.445   1.164 -1.5967  0.5833 -1.0290
 2506TP3      O 7529   1.176   0.569   2.964 -0.1613  0.5283  0.4011
 2506TP3     H1 7530   1.099   0.522   2.934  1.1950 -0.6670 -1.4601
 2506TP3     H2 7531   1.209   0.613   2.885  1.1799  0.7915  1.0721
 2507TP3      O 7532   2.711   0.241   3.691 -0.5352 -0.9255 -0.1779
 2507TP3     H1 7533   2.665   0.162   3.720 -0.0991 -1.7034 -1.5012
 2507TP3     H2 7534   2.751   0.276   3.770 -1.0024 -1.8470  0.4872
 2508TP3      O 7535   2.282   0.444   3.212 -0.1605  0.2969  0.0236
 2508TP3     H1 7536   2.298   0.538   3.213 -1.5565  0.5535  0.1373
 2508TP3     H2 7537   2.365   0.405   3.237  0.0525  1.5634  1.4354
 2509TP3      O 7538   3.753   0.030   2.441  0.1419 -0.1066  0.3155
 2509TP3     H1 7539   3.659   0.049   2.442  0.3174  0.8073 -0.0587
 2509TP3     H2 7540   3.758  -0.062   2.414 -0.6433 -0.1881  0.4209
 2510TP3      O 7541   2.153   1.213   2.070 -0.0963  0.6175 -0.1497
 2510TP3     H1 7542   2.140   1.235   2.163 -0.8254  2.6198 -0.6720
 2510TP3     H2 7543   2.065   1.208   2.034  0.1379 -1.1846 -0.5611
 2511TP3      O 7544   3.286   0.730   2.765  0.2409 -0.1758 -0.1507
 2511TP3     H1 7545   3.292   0.740   2.860 -0.0305  1.3354 -0.2755
 2511TP3     H2 7546   3.377   0.723   2.736  0.4015  0.7693  0.0941
 2512TP3      O 7547   3.710   5.877   1.854  1.6377 -0.1935 -0.1665
 2512TP3     H1 7548   3.676   5.830   1.778  0.6877 -0.7260  0.5612
 2512TP3     H2 7549   3.753   5.810   1.907  0.5704 -0.2226  0.7144
 2513TP3      O 7550   2.439   1.318   1.643  0.1348  0.1180 -0.3604
 2513TP3     H1 7551   2.451   1.293   1.551 -0.6953  1.4171 -0.8587
 2513TP3     H2 7552   2.393   1.244   1.683 -0.5297  0.0178 -1.2849
 2514TP3      O 7553   3.978   1.041   1.633  0.1908 -0.4477 -0.3283
 2514TP3     H1 7554   3.978   0.946   1.623 -0.3503 -0.4744 -0.1317
 2514TP3     H2 7555   3.896   1.060   1.678  0.5533  0.0624  0.1272
 2515TP3      O 7556   3.447   0.400   2.077  0.3247  0.2728  1.0974
 2515TP3     H1 7557   3.412   0.488   2.061 -0.8977 -0.3390  0.2133
 2515TP3     H2 7558   3.479   0.403   2.167 -2.9806  0.6192  2.3893
 2516TP3      O 7559   2.534   0.295   2.944  0.1979  0.0246  0.1162
 2516TP3     H1 7560   2.492   0.237   3.008 -1.1954 -0.7835 -1.4578
 2516TP3     H2 7561   2.573   0.235   2.880  0.9415  0.8206 -0.1902
 2517TP3      O 7562   4.128   0.982   3.743 -0.6073  0.5093 -0.4884
 2517TP3     H1 7563   4.117   1.002   3.836 -0.8609 -0.1197 -0.3796
 2517TP3     H2 7564   4.203   0.922   3.739  0.1959  1.5062 -0.8209
 2518TP3      O 7565   2.510   1.311   3.859 -0.4529  0.3061  0.4462
 2518TP3     H1 7566   2.572   1.378   3.887  0.4984 -0.3074 -0.1258
 2518TP3     H2 7567   2.423   1.351   3.873  0.0814  1.6290  0.1450
 2519TP3      O 7568   3.217   1.739   3.587  0.1059 -0.4632  0.1314
 2519TP3     H1 7569   3.176   1.779   3.510  0.2682  0.0526  0.3126
 2519TP3     H2 7570   3.187   1.791   3.661 -1.3256 -1.9138  0.6258
 2520TP3      O 7571   3.376   1.115   3.614 -0.2908 -0.3185 -0.4022
 2520TP3     H1 7572   3.315   1.096   3.686  1.2562  1.8502  1.6192
 2520TP3     H2 7573   3.414   1.030   3.593 -2.7029 -1.4430 -0.5559
 2521TP3      O 7574   3.148   0.476   2.970 -0.0582  0.9758  0.1966
 2521TP3     H1 7575   3.131   0.570   2.974  0.7756  1.1140  0.7129
 2521TP3     H2 7576   3.203   0.465   2.893 -1.3406  0.7055 -0.7061
 2522TP3      O 7577   2.640   5.499   2.752 -0.7805 -0.2330 -0.0189
 2522TP3     H1 7578   2.609   5.545   2.830 -0.1739  2.4503 -1.2191
 2522TP3     H2 7579   2.705   5.558   2.714  1.0572 -2.7491 -1.0554
 2523TP3      O 7580   1.952   1.733   3.439  0.1640 -0.6262  0.5935
 2523TP3     H1 7581   2.021   1.672   3.411 -2.2733 -2.5387 -1.8351
 2523TP3     H2 7582   1.874   1.679   3.445 -2.3371  2.2060 -2.3576
 2524TP3      O 7583   2.853   0.950   2.986  0.1706 -0.1803 -0.1339
 2524TP3     H1 7584   2.808   0.873   3.020  0.0405  0.5569  1.5068
 2524TP3     H2 7585   2.904   0.982   3.061 -2.1455  3.0652  0.2492
 2525TP3      O 7586   2.511   0.365   3.901  0.5528  0.0076 -0.1747
 2525TP3     H1 7587   2.586   0.424   3.897  0.7239 -0.1744  0.2718
 2525TP3     H2 7588   2.549   0.278   3.911  0.2804 -0.0788  0.1309
 2526TP3      O 7589   2.777   0.727   3.105  0.3545 -0.4519 -0.8874
 2526TP3     H1 7590   2.745   0.650   3.058  0.2278 -1.6707  1.0841
 2526TP3     H2 7591   2.716   0.737   3.178 -0.3844  2.3317 -1.7452
 2527TP3      O 7592   2.053   1.711   4.249 -0.1533  0.1566  0.3046
 2527TP3     H1 7593   2.033   1.802   4.270 -3.1234 -0.2088 -0.5355
 2527TP3     H2 7594   2.092   1.676   4.329 -0.0122  1.8459  1.0215
 2528TP3      O 7595   2.767   1.368   1.096  0.0998  0.3628  0.0650
 2528TP3     H1 7596   2.858   1.394   1.081 -0.3312  1.7565 -0.2682
 2528TP3     H2 7597   2.739   1.419   1.172 -0.4571  0.0630  0.0663
 2529TP3      O 7598   1.889   0.848   2.163 -0.1799 -0.1986 -0.5936
 2529TP3     H1 7599   1.970   0.825   2.209 -1.1629  0.7451  1.7361
 2529TP3     H2 7600   1.819   0.817   2.221 -1.4849  2.0122 -0.8915
 2530TP3      O 7601   2.996   0.965   2.072 -0.0343  0.0931 -0.2284
 2530TP3     H1 7602   3.087   0.960   2.043  0.6997  0.1208  1.9227
 2530TP3     H2 7603   3.001   0.990   2.164 -2.3075  2.2398 -0.5644
 2531TP3      O 7604   2.412   1.345   2.993 -0.0502 -0.3797  0.2647
 2531TP3     H1 7605   2.499   1.308   3.011  0.7521  0.8213 -0.9751
 2531TP3     H2 7606   2.376   1.362   3.080  0.8051 -1.2135  0.8094
 2532TP3      O 7607   2.398   0.681   3.177  0.0720 -0.4557  0.4928
 2532TP3     H1 7608   2.391   0.637   3.092 -1.3517  0.8574 -0.1140
 2532TP3     H2 7609   2.448   0.760   3.159 -0.7084  0.1071  0.7315
 2533TP3      O 7610   1.450   0.991   2.575  0.2703 -0.2125  0.5536
 2533TP3     H1 7611   1.392   1.026   2.642 -0.7656 -0.6496 -0.0861
 2533TP3     H2 7612   1.391   0.950   2.512  1.2809 -0.6427 -0.1343
 2534TP3      O 7613   1.636   0.009   4.576  0.4066 -0.3901  0.4516
 2534TP3     H1 7614   1.625   0.096   4.539 -1.3744 -0.8217 -0.1784
 2534TP3     H2 7615   1.558  -0.003   4.630 -0.3751 -2.2565 -0.9660
 2535TP3      O 7616   3.909   0.858   3.279 -0.1699  0.0325 -0.6897
 2535TP3     H1 7617   3.827   0.810   3.272 -0.2830  0.0936  0.1499
 2535TP3     H2 7618   3.883   0.946   3.307 -0.1273  1.1418 -3.7689
 2536TP3      O 7619   2.483   5.825   3.720  0.4985  0.3123 -0.2650
 2536TP3     H1 7620   2.478   5.916   3.749 -0.1559  0.1406  0.1817
 2536TP3     H2 7621   2.392   5.801   3.699  0.6494 -0.2600 -0.2907
 2537TP3      O 7622   1.916   0.004   3.081  0.0030  0.3526  0.3585
 2537TP3     H1 7623   1.971   0.068   3.127  0.7758 -1.4602  2.1225
 2537TP3     H2 7624   1.878  -0.049   3.151 -3.5373  1.0779 -0.8315
 2538TP3      O 7625   2.289   0.758   2.587  0.3059  0.7066 -0.3419
 2538TP3     H1 7626   2.268   0.767   2.679  1.0145  1.1638 -0.2211
 2538TP3     H2 7627   2.360   0.694   2.584 -1.2292 -1.0733 -0.7735
 2539TP3      O 7628   3.074   0.726   2.995 -0.4096 -0.0447  0.3755
 2539TP3     H1 7629   3.120   0.810   2.994  1.5468 -0.9632  2.4874
 2539TP3     H2 7630   2.982   0.748   2.985  0.2249  2.1285 -1.4712
 2540TP3      O 7631   2.421   0.510   2.633 -0.2770 -0.2163 -0.1930
 2540TP3     H1 7632   2.366   0.447   2.588 -2.1574  1.1353  0.0950
 2540TP3     H2 7633   2.500   0.517   2.579 -0.5696 -1.8546 -0.8733
 2541TP3      O 7634   1.981   0.244   3.602 -0.2659  0.0962  0.1823
 2541TP3     H1 7635   2.070   0.234   3.568 -0.0058  0.6757  0.6699
 2541TP3     H2 7636   1.982   0.198   3.686 -0.8594 -1.1899 -0.4908
 2542TP3      O 7637   1.094   1.718   3.092 -0.4738  0.4660  0.3824
 2542TP3     H1 7638   1.114   1.671   3.173 -0.7197 -0.6566 -0.1864
 2542TP3     H2 7639   1.135   1.666   3.024 -2.5225 -0.1291 -0.4802
 2543TP3      O 7640   2.430   0.585   2.901 -0.1558 -0.1202 -0.4495
 2543TP3     H1 7641   2.408   0.597   2.808  1.9508  0.3578 -0.9510
 2543TP3     H2 7642   2.471   0.499   2.905  0.2776  0.1021 -0.0672
 2544TP3      O 7643   3.276   0.902   4.058  0.1482  0.2214  0.0046
 2544TP3     H1 7644   3.313   0.983   4.094  0.3875 -0.2032  0.7311
 2544TP3     H2 7645   3.185   0.901   4.090  0.2455  0.0388  0.2801
 2545TP3      O 7646   2.678   5.734   2.599  0.5868  0.2193 -0.1801
 2545TP3     H1 7647   2.591   5.760   2.568  0.5445 -0.7522 -0.9228
 2545TP3     H2 7648   2.731   5.813   2.587 -0.3584  1.0797  1.0493
 2546TP3      O 7649   2.209   0.374   2.486  0.2173 -0.3874 -1.0306
 2546TP3     H1 7650   2.205   0.278   2.488  0.4693 -0.3926  1.4593
 2546TP3     H2 7651   2.163   0.397   2.405 -0.5527 -2.5684 -1.2975
 2547TP3      O 7652   2.609   1.187   3.084  0.3479  0.4566  0.3420
 2547TP3     H1 7653   2.643   1.098   3.095 -0.6959  0.1314  1.1661
 2547TP3     H2 7654   2.594   1.218   3.174 -3.2601 -0.1630  0.1228
 2548TP3      O 7655   1.526   1.607   4.350  0.4467 -0.6789 -0.0427
 2548TP3     H1 7656   1.434   1.592   4.327  0.1615 -1.3368  1.3994
 2548TP3     H2 7657   1.523   1.671   4.420  1.1265 -0.3534 -0.3063
 2549TP3      O 7658   3.025   2.405   2.803  0.1743  1.0659 -0.4021
 2549TP3     H1 7659   3.086   2.465   2.760 -0.9859  2.3976 -0.2535
 2549TP3     H2 7660   2.939   2.447   2.795 -0.7826 -0.8332 -0.7509
 2550TP3      O 7661   2.567   1.561   3.248  0.8254 -0.2116  0.3104
 2550TP3     H1 7662   2.547   1.654   3.258  1.1593 -0.0692 -0.2879
 2550TP3     H2 7663   2.485   1.516   3.271 -0.2528  0.3541 -2.0996
 2551TP3      O 7664   3.089   1.090   1.661 -0.3639  0.8106  0.5815
 2551TP3     H1 7665   3.161   1.063   1.605  0.3696  1.0582  1.3964
 2551TP3     H2 7666   3.108   1.051   1.746 -1.1971  0.8619  0.8009
 2552TP3      O 7667   2.919   1.814   1.895  0.1309 -0.1308 -0.2219
 2552TP3     H1 7668   2.913   1.728   1.935 -3.6129 -0.7728 -1.7246
 2552TP3     H2 7669   2.840   1.859   1.923 -0.3616  1.0488 -3.0933
 2553TP3      O 7670   2.604   2.011   2.149 -0.0815  0.5935 -0.6196
 2553TP3     H1 7671   2.547   1.937   2.172  1.8480 -1.3455 -1.6586
 2553TP3     H2 7672   2.654   2.028   2.228 -2.6111  3.0021  0.6469
 2554TP3      O 7673   2.195   0.981   2.446 -0.1271 -0.4986 -0.4809
 2554TP3     H1 7674   2.212   0.930   2.526  0.4382  1.0124  0.4129
 2554TP3     H2 7675   2.217   1.071   2.471 -3.4033  0.6368 -1.2264
 2555TP3      O 7676   2.126   0.727   3.167 -0.3780 -0.0682 -0.2425
 2555TP3     H1 7677   2.218   0.751   3.161 -0.6855  0.9728 -1.1709
 2555TP3     H2 7678   2.115   0.693   3.256  0.9404 -0.4212 -0.2006
 2556TP3      O 7679   1.956   0.143   3.853  0.0217 -0.0877  0.3619
 2556TP3     H1 7680   1.885   0.098   3.806  0.1392  0.4749 -0.3724
 2556TP3     H2 7681   1.911   0.211   3.903 -0.0559 -0.3942  0.7158
 2557TP3      O 7682   2.427   5.546   3.665  0.0130  0.3515  0.3957
 2557TP3     H1 7683   2.498   5.587   3.714  0.7029  1.9520 -1.7911
 2557TP3     H2 7684   2.349   5.563   3.717  0.9472  0.3090  1.8568
 2558TP3      O 7685   1.905   1.291   0.884  0.3957 -0.1012  0.5091
 2558TP3     H1 7686   1.903   1.308   0.790  0.1540  0.9595  0.7053
 2558TP3     H2 7687   1.832   1.340   0.920  0.3280 -0.7064  1.2324
 2559TP3      O 7688   2.015   2.259   3.119 -0.2757 -0.0302  0.0992
 2559TP3     H1 7689   1.989   2.180   3.168  1.5850  0.1473  1.4612
 2559TP3     H2 7690   2.056   2.226   3.040 -1.2832 -0.3707 -0.2961
 2560TP3      O 7691   2.603   1.300   2.357  0.1705  0.0792  0.4970
 2560TP3     H1 7692   2.637   1.234   2.296 -0.2788  0.7849 -0.5562
 2560TP3     H2 7693   2.650   1.380   2.334 -0.6376  0.5610  0.4745
 2561TP3      O 7694   2.606   2.310   3.111  0.4886 -0.3222 -0.2136
 2561TP3     H1 7695   2.629   2.310   3.204  0.5353  2.2704 -0.1490
 2561TP3     H2 7696   2.623   2.400   3.083  1.5461 -1.3004 -3.0227
 2562TP3      O 7697   1.309   0.897   3.108  0.1894  0.2368 -0.0956
 2562TP3     H1 7698   1.321   0.863   3.019 -0.4490  0.2882 -0.2062
 2562TP3     H2 7699   1.234   0.848   3.142 -0.2512  0.9749  0.0270
 2563TP3      O 7700   2.354   1.024   3.753  0.2063 -0.3804 -0.6460
 2563TP3     H1 7701   2.262   1.032   3.780  0.0415 -3.0989 -0.1153
 2563TP3     H2 7702   2.389   1.112   3.764 -1.9311  0.4003  0.6854
 2564TP3      O 7703   3.408   1.301   3.391 -0.3031  0.2668 -0.3192
 2564TP3     H1 7704   3.375   1.275   3.477  1.8589 -2.2192 -0.1082
 2564TP3     H2 7705   3.354   1.252   3.329  0.5488 -0.9683 -0.1343
 2565TP3      O 7706   3.256   0.972   1.854 -0.3103 -0.1577  0.7524
 2565TP3     H1 7707   3.315   0.987   1.929  1.1763  1.7368 -0.6870
 2565TP3     H2 7708   3.283   0.887   1.820 -1.1658 -1.1651  2.4518
 2566TP3      O 7709   3.163   1.052   2.784  0.3560  0.0861  0.0033
 2566TP3     H1 7710   3.135   1.131   2.830  2.3025  0.6383  0.3170
 2566TP3     H2 7711   3.217   1.005   2.847  3.1290  0.8856 -1.5983
 2567TP3      O 7712   1.616   1.522   3.823 -0.4287 -0.6810  0.6951
 2567TP3     H1 7713   1.575   1.593   3.871 -1.3981 -0.3486 -0.5590
 2567TP3     H2 7714   1.698   1.558   3.790 -1.0739 -0.0086 -0.2182
 2568TP3      O 7715   1.836   0.330   3.047  0.0811 -0.4070  0.5351
 2568TP3     H1 7716   1.839   0.355   3.140 -1.7868 -0.5398  0.6707
 2568TP3     H2 7717   1.900   0.388   3.005 -2.3081  3.0557  1.2162
 2569TP3      O 7718   2.787   1.391   3.492 -0.0673  0.0272  0.3967
 2569TP3     H1 7719   2.741   1.400   3.408  1.1193 -0.4800 -0.3349
 2569TP3     H2 7720   2.734   1.330   3.542 -0.5570 -0.0202 -0.1659
 2570TP3      O 7721   2.316   0.826   2.046 -0.0801 -0.1168 -0.0540
 2570TP3     H1 7722   2.374   0.865   2.111 -0.3818  0.6776 -0.2551
 2570TP3     H2 7723   2.228   0.837   2.082 -0.1639 -0.7210 -0.0589
 2571TP3      O 7724   1.919   1.836   3.081 -1.3376 -0.0627 -0.6332
 2571TP3     H1 7725   1.902   1.870   3.169 -2.3806  0.0502 -0.8660
 2571TP3     H2 7726   1.894   1.744   3.085  0.2685 -0.5315 -0.3593
 2572TP3      O 7727   3.034   0.684   3.275 -0.3971 -0.0944 -0.3658
 2572TP3     H1 7728   3.016   0.678   3.182 -1.8405  0.0643 -0.1142
 2572TP3     H2 7729   2.960   0.641   3.317 -1.5413  2.7468  0.8164
 2573TP3      O 7730   3.661   0.884   2.312 -0.0792 -0.0775 -0.3722
 2573TP3     H1 7731   3.643   0.891   2.406 -3.6196  0.9340 -0.9700
 2573TP3     H2 7732   3.614   0.958   2.274  0.9525 -0.6866 -2.9958
 2574TP3      O 7733   3.642   1.657   2.645 -0.7092 -0.6876  0.2957
 2574TP3     H1 7734   3.619   1.570   2.678 -0.5032 -1.0256 -0.4342
 2574TP3     H2 7735   3.559   1.704   2.640 -0.8171 -0.8313  0.7222
 2575TP3      O 7736   2.782   1.742   3.371 -0.2991 -0.1054  0.1568
 2575TP3     H1 7737   2.815   1.822   3.413  0.4478 -0.9490  1.2379
 2575TP3     H2 7738   2.746   1.690   3.444  0.8647 -1.5379 -0.2424
 2576TP3      O 7739   1.864   1.303   2.533 -0.5240  1.0581  0.0517
 2576TP3     H1 7740   1.948   1.270   2.501 -0.8201  0.2052  0.1115
 2576TP3     H2 7741   1.836   1.365   2.466 -1.0364 -0.5470 -1.3046
 2577TP3      O 7742   2.753   2.282   4.303 -0.2161 -0.2580 -0.4156
 2577TP3     H1 7743   2.835   2.327   4.324 -0.0338 -0.7277 -0.0880
 2577TP3     H2 7744   2.697   2.299   4.379 -1.9272  3.3979 -2.2294
 2578TP3      O 7745   4.758   0.008   2.864 -0.2645  0.7396 -0.3113
 2578TP3     H1 7746   4.755   0.097   2.899 -1.5707  0.5908  0.0122
 2578TP3     H2 7747   4.760  -0.048   2.942 -3.4409  0.3969 -0.3465
 2579TP3      O 7748   4.283   1.565   2.657 -0.8322  0.2977 -0.0740
 2579TP3     H1 7749   4.265   1.482   2.612  0.0117  0.0365  0.0374
 2579TP3     H2 7750   4.362   1.547   2.709 -0.2805  1.3372 -0.5182
 2580TP3      O 7751   1.765   2.108   4.175  0.4101  0.0726 -0.3468
 2580TP3     H1 7752   1.745   2.147   4.090 -1.8225 -0.6386 -0.2204
 2580TP3     H2 7753   1.750   2.179   4.237  1.1226  0.3360 -0.4729
 2581TP3      O 7754   3.273   1.016   1.473 -0.1657 -0.0973 -0.2320
 2581TP3     H1 7755   3.328   0.954   1.426 -1.7689 -1.3180 -0.5685
 2581TP3     H2 7756   3.295   1.101   1.435  2.4853 -0.3032  0.6356
 2582TP3      O 7757   2.362   1.884   3.553  0.1137 -0.0780 -0.0029
 2582TP3     H1 7758   2.408   1.934   3.485 -0.6094  0.0299 -0.4186
 2582TP3     H2 7759   2.361   1.942   3.629  1.7075 -0.5366  0.4036
 2583TP3      O 7760   2.240   1.416   1.311  0.6663 -0.1570 -0.0208
 2583TP3     H1 7761   2.273   1.445   1.226  0.4269 -0.3629 -0.1870
 2583TP3     H2 7762   2.292   1.338   1.332 -0.1164 -0.8476 -0.5740
 2584TP3      O 7763   3.616   1.724   3.024 -0.4409 -0.6343 -0.3657
 2584TP3     H1 7764   3.610   1.721   3.119 -0.0033 -2.2069 -0.3684
 2584TP3     H2 7765   3.527   1.711   2.993 -0.3397 -1.7999 -0.1821
 2585TP3      O 7766   2.844   0.262   2.518 -0.7899 -0.1479 -0.3636
 2585TP3     H1 7767   2.843   0.303   2.605 -1.9309  0.8853 -0.8301
 2585TP3     H2 7768   2.908   0.314   2.468  0.0848 -0.9252 -0.0766
 2586TP3      O 7769   1.486   0.541   3.654 -0.1678 -0.0502 -0.3251
 2586TP3     H1 7770   1.433   0.509   3.727  1.8535  0.4672  1.4745
 2586TP3     H2 7771   1.525   0.622   3.686  0.5815  0.3436 -2.0951
 2587TP3      O 7772   2.571   1.190   1.873  0.2735 -0.1637 -0.0431
 2587TP3     H1 7773   2.601   1.115   1.820 -0.2647 -1.3752  1.2971
 2587TP3     H2 7774   2.532   1.249   1.810 -2.3375 -2.5478 -0.8673
 2588TP3      O 7775   3.040   0.533   4.136 -0.0926  0.0003 -0.3401
 2588TP3     H1 7776   3.097   0.503   4.065  0.0422  1.6643 -0.9686
 2588TP3     H2 7777   3.100   0.564   4.204  0.0276  4.9965 -2.3383
 2589TP3      O 7778   2.676   1.095   2.185 -0.1169 -0.3719  0.5616
 2589TP3     H1 7779   2.690   1.129   2.097 -0.9384 -0.5117  0.3731
 2589TP3     H2 7780   2.730   1.016   2.190  1.9524  0.9975  1.0571
 2590TP3      O 7781   2.794   2.411   1.248  0.5027 -0.1172 -0.0924
 2590TP3     H1 7782   2.719   2.458   1.284 -1.1123 -0.4844 -2.6801
 2590TP3     H2 7783   2.798   2.329   1.298 -1.9501 -0.8484 -0.9412
 2591TP3      O 7784   2.135   1.536   3.399 -0.1427 -0.1645 -0.3374
 2591TP3     H1 7785   2.159   1.535   3.306  0.3740  0.8975 -0.2339
 2591TP3     H2 7786   2.214   1.567   3.443 -0.5321 -0.2201  0.4084
 2592TP3      O 7787   3.172   1.374   3.180 -0.2464  0.6358  0.0114
 2592TP3     H1 7788   3.127   1.313   3.238  1.2704  1.1073  1.8072
 2592TP3     H2 7789   3.142   1.460   3.210 -1.5789  0.8700 -1.8186
 2593TP3      O 7790   3.276   0.449   2.391  0.1955  0.3210 -0.3202
 2593TP3     H1 7791   3.325   0.373   2.358 -0.2792 -1.0725  1.9854
 2593TP3     H2 7792   3.294   0.450   2.485 -1.6973  1.6496  0.0773
 2594TP3      O 7793   3.537   0.679   2.688  0.1982 -0.1937  0.0245
 2594TP3     H1 7794   3.587   0.654   2.766  0.1631 -0.3036  0.0128
 2594TP3     H2 7795   3.571   0.621   2.620  3.0030  2.4342 -1.0330
 2595TP3      O 7796   1.636   1.490   1.203 -0.1995 -0.2864 -0.6566
 2595TP3     H1 7797   1.640   1.463   1.295  0.0246  0.6842 -0.3683
 2595TP3     H2 7798   1.593   1.575   1.205  0.4880  0.0869 -1.3685
 2596TP3      O 7799   3.258   0.188   2.605 -0.6677  0.2007  0.1914
 2596TP3     H1 7800   3.243   0.144   2.522 -3.1959  2.2624 -0.5882
 2596TP3     H2 7801   3.190   0.152   2.663 -2.4674  2.5651 -0.3270
 2597TP3      O 7802   1.595   2.145   1.467 -0.3249 -0.0939  0.4948
 2597TP3     H1 7803   1.677   2.191   1.486 -0.0227 -0.0099 -0.8927
 2597TP3     H2 7804   1.604   2.115   1.377 -1.2686 -1.3068  0.7701
 2598TP3      O 7805   2.937   1.058   3.234 -0.1101  0.2332  0.2214
 2598TP3     H1 7806   3.009   1.003   3.265 -1.5604 -0.9594  1.6475
 2598TP3     H2 7807   2.970   1.148   3.240  0.8590 -0.2043  2.0353
 2599TP3      O 7808   2.477   0.014   3.379  0.4914  1.0163 -0.4639
 2599TP3     H1 7809   2.517  -0.052   3.322  3.6957  2.8260 -0.5870
 2599TP3     H2 7810   2.532   0.092   3.367 -0.8780  2.5921  2.3974
 2600TP3      O 7811   1.814   0.778   1.310  0.9147 -0.3703  0.1390
 2600TP3     H1 7812   1.845   0.694   1.341 -2.3830 -2.5862 -1.9107
 2600TP3     H2 7813   1.739   0.799   1.365  2.0578  1.6819  1.0514
 2601TP3      O 7814   3.166   0.297   3.278 -0.0860 -0.7749  0.3244
 2601TP3     H1 7815   3.179   0.359   3.206 -0.3813 -1.2541 -0.1528
 2601TP3     H2 7816   3.143   0.215   3.234  1.0866 -1.4339  0.9077
 2602TP3      O 7817   2.611   0.061   2.800  0.2496 -0.2495  0.1156
 2602TP3     H1 7818   2.520   0.053   2.769  0.7918  1.1625 -2.1138
 2602TP3     H2 7819   2.663   0.023   2.729  1.4483 -1.4978  1.5812
 2603TP3      O 7820   3.712   0.941   1.139 -0.1301 -0.1208  0.0379
 2603TP3     H1 7821   3.723   0.973   1.228  0.0338 -1.5201  0.5321
 2603TP3     H2 7822   3.756   1.007   1.084  1.0296  0.0140  1.0972
 2604TP3      O 7823   2.163   0.669   3.470 -0.6292  0.4173 -0.0966
 2604TP3     H1 7824   2.229   0.698   3.407  0.8948 -1.0734  0.7434
 2604TP3     H2 7825   2.205   0.677   3.555 -0.4664 -2.9755  0.2893
 2605TP3      O 7826   2.783   1.062   2.525  0.4825  0.3236 -0.2976
 2605TP3     H1 7827   2.697   1.063   2.484  0.3920 -0.0634 -0.1256
 2605TP3     H2 7828   2.765   1.064   2.619  0.6464 -0.2562 -0.2511
 2606TP3      O 7829   1.862   0.600   3.867  0.2102 -0.0506 -0.0093
 2606TP3     H1 7830   1.921   0.595   3.792  1.8420  0.4868  1.1712
 2606TP3     H2 7831   1.920   0.607   3.943 -1.3108 -2.2693  1.4911
 2607TP3      O 7832   2.843   1.360   2.878 -0.0440  0.2948 -0.6152
 2607TP3     H1 7833   2.763   1.335   2.832 -1.0098 -1.5460  1.8370
 2607TP3     H2 7834   2.813   1.417   2.949  1.0785  1.0687 -0.7247
 2608TP3      O 7835   2.357   2.322   4.079 -0.2098  0.9673  0.4850
 2608TP3     H1 7836   2.388   2.412   4.071  0.3946  0.8542  1.3449
 2608TP3     H2 7837   2.373   2.300   4.171  0.8835 -0.4469 -0.0072
 2609TP3      O 7838   3.541   0.613   3.456  0.5131  0.5804  0.7156
 2609TP3     H1 7839   3.561   0.556   3.381 -0.0887 -1.9476  2.3826
 2609TP3     H2 7840   3.624   0.621   3.502  0.1106 -1.0725  1.8123
 2610TP3      O 7841   4.276   5.996   2.548 -0.1799  0.8621 -0.1515
 2610TP3     H1 7842   4.348   5.979   2.608 -1.4574 -0.3417  1.1241
 2610TP3     H2 7843   4.295   5.942   2.471 -0.0660 -0.0305  0.4823
 2611TP3      O 7844   3.187   0.041   2.840 -0.3603  0.0289  0.4034
 2611TP3     H1 7845   3.101   0.008   2.814 -0.6130 -0.2166  1.5333
 2611TP3     H2 7846   3.248  -0.028   2.813 -0.4066  0.5508 -1.1269
 2612TP3      O 7847   2.842   0.134   4.178  0.8538 -0.1443  0.1503
 2612TP3     H1 7848   2.909   0.087   4.129 -0.2071 -0.9790 -0.5556
 2612TP3     H2 7849   2.890   0.201   4.227  2.3351 -1.5556  0.6974
 2613TP3      O 7850   2.716   0.510   3.604 -0.8325  0.2050 -0.1680
 2613TP3     H1 7851   2.769   0.487   3.528  0.3672 -0.3881  0.8168
 2613TP3     H2 7852   2.723   0.434   3.662 -2.4375  0.2811  0.1907
 2614TP3      O 7853   2.974   1.354   1.740  0.3238 -0.2443 -0.1228
 2614TP3     H1 7854   3.033   1.282   1.718 -0.7698 -1.5400  0.9876
 2614TP3     H2 7855   2.918   1.318   1.810 -1.2393  1.1908 -0.5857
 2615TP3      O 7856   2.519   1.910   2.764 -0.0465 -0.0640 -0.3549
 2615TP3     H1 7857   2.438   1.912   2.712 -1.0005 -0.3027  1.0532
 2615TP3     H2 7858   2.516   1.825   2.809  0.4378  0.3892  0.5498
 2616TP3      O 7859   2.498   0.988   1.537 -0.0688 -0.1698 -0.0048
 2616TP3     H1 7860   2.461   0.950   1.617 -0.1814 -0.7293 -0.3157
 2616TP3     H2 7861   2.515   0.912   1.481 -1.3036  0.3213 -1.0731
 2617TP3      O 7862   2.849   1.107   1.517  0.2966  0.2583 -0.6393
 2617TP3     H1 7863   2.793   1.168   1.565  0.1758  0.0669 -0.5346
 2617TP3     H2 7864   2.932   1.108   1.566  0.8479  1.5423 -1.5464
 2618TP3      O 7865   3.356   1.767   2.637 -0.0267  0.0387 -0.2157
 2618TP3     H1 7866   3.294   1.694   2.642  0.0860  0.0227  1.6691
 2618TP3     H2 7867   3.313   1.832   2.582 -1.4996 -0.1961  0.6004
 2619TP3      O 7868   2.200   1.717   3.790  0.2991 -0.2124 -0.1733
 2619TP3     H1 7869   2.128   1.778   3.804  0.3379  0.1390 -1.3834
 2619TP3     H2 7870   2.212   1.674   3.875 -0.8845  0.1992  0.2219
 2620TP3      O 7871   1.782   1.397   3.286  0.1231 -0.1795  0.0064
 2620TP3     H1 7872   1.767   1.485   3.322 -0.9216 -0.2015 -0.3185
 2620TP3     H2 7873   1.697   1.354   3.296  0.4331 -0.9096 -0.4971
 2621TP3      O 7874   1.031   1.801   4.064  0.2694 -0.3017  0.0087
 2621TP3     H1 7875   1.027   1.884   4.111  0.6507 -0.3630  0.1528
 2621TP3     H2 7876   1.003   1.823   3.975 -1.5670 -0.4139  0.5350
 2622TP3      O 7877   3.663   0.045   2.760  0.1903 -0.5411  0.1482
 2622TP3     H1 7878   3.634  -0.046   2.762 -1.4252 -0.1168 -1.2790
 2622TP3     H2 7879   3.676   0.064   2.667  0.0577  0.8008  0.3827
 2623TP3      O 7880   2.567   0.396   2.293 -0.0847 -0.2955 -0.0042
 2623TP3     H1 7881   2.568   0.477   2.243  3.3640  0.1791  0.5900
 2623TP3     H2 7882   2.610   0.418   2.376  1.7869 -2.8077 -0.1712
 2624TP3      O 7883   3.420   1.630   3.434 -0.3249  0.4544  0.4662
 2624TP3     H1 7884   3.393   1.660   3.348 -1.3806 -0.6983  0.3621
 2624TP3     H2 7885   3.344   1.646   3.491 -0.1103  0.0219  0.8860
 2625TP3      O 7886   2.226   0.311   3.517 -1.1366  0.1655  0.4402
 2625TP3     H1 7887   2.208   0.386   3.460  1.4074  0.1708 -0.4803
 2625TP3     H2 7888   2.306   0.337   3.565 -1.6760 -0.9481  2.0191
 2626TP3      O 7889   2.372   2.052   1.919  0.6200  0.0426 -0.4374
 2626TP3     H1 7890   2.281   2.049   1.949 -0.0097 -0.8784 -2.2628
 2626TP3     H2 7891   2.375   2.128   1.860  0.5158 -0.9635 -1.7937
 2627TP3      O 7892   3.111   0.530   2.681  0.0242 -0.5997 -1.3145
 2627TP3     H1 7893   3.134   0.622   2.689 -1.3712 -0.0578 -3.0165
 2627TP3     H2 7894   3.183   0.484   2.724 -1.2111  1.3234  3.6277
 2628TP3      O 7895   2.403   0.690   3.988 -0.0858 -0.2775  0.1090
 2628TP3     H1 7896   2.382   0.627   4.056 -1.6011  0.1713  0.0847
 2628TP3     H2 7897   2.401   0.775   4.032 -1.2009  0.0277 -0.4972
 2629TP3      O 7898   2.279   1.882   2.641 -0.1505 -0.3042  0.3738
 2629TP3     H1 7899   2.185   1.896   2.643  0.0332  1.2191 -0.5578
 2629TP3     H2 7900   2.289   1.787   2.629 -1.5341 -0.5830  1.2511
 2630TP3      O 7901   2.971   1.828   2.767  0.7693 -0.4500 -0.5381
 2630TP3     H1 7902   3.000   1.737   2.756 -0.3571 -1.0308  1.0089
 2630TP3     H2 7903   3.039   1.879   2.724  3.3203 -1.8302  1.5341
 2631TP3      O 7904   2.384   0.204   2.226 -0.2280 -0.2821  0.9107
 2631TP3     H1 7905   2.314   0.253   2.182 -0.1742 -0.1555  0.9660
 2631TP3     H2 7906   2.428   0.269   2.280  2.7914  0.7894 -2.4227
 2632TP3      O 7907   3.841   5.683   3.281 -0.0886 -0.4181 -0.2318
 2632TP3     H1 7908   3.893   5.751   3.324  0.1470 -1.8999  1.9730
 2632TP3     H2 7909   3.842   5.707   3.189 -0.0079  2.5590  0.4397
 2633TP3      O 7910   3.427   0.654   2.163 -0.1478  0.1881 -0.0511
 2633TP3     H1 7911   3.435   0.729   2.104 -1.3483 -1.3716 -2.3571
 2633TP3     H2 7912   3.364   0.682   2.229  0.0241  1.4561 -0.3916
 2634TP3      O 7913   2.123   0.775   2.267  0.3731  0.0025 -0.2155
 2634TP3     H1 7914   2.162   0.847   2.317 -0.7125  0.7943 -0.4580
 2634TP3     H2 7915   2.187   0.704   2.271  1.3902  0.9280  0.1796
 2635TP3      O 7916   2.555   1.579   1.536 -0.9085 -0.3117 -0.1370
 2635TP3     H1 7917   2.601   1.622   1.609  2.9901 -1.7978 -1.4495
 2635TP3     H2 7918   2.501   1.512   1.578  0.7046 -0.6693  1.5106
 2636TP3      O 7919   2.031   1.296   3.269  0.0693 -0.5728  0.5813
 2636TP3     H1 7920   1.937   1.313   3.272  0.2691  0.8843 -0.4669
 2636TP3     H2 7921   2.070   1.371   3.315  0.8529  0.5672 -1.7990
 2637TP3      O 7922   2.296   1.181   4.209  0.6404  0.1792 -0.1561
 2637TP3     H1 7923   2.262   1.197   4.121 -1.1676 -2.2745 -0.0201
 2637TP3     H2 7924   2.256   1.249   4.263 -0.2981  0.2037 -0.8452
 2638TP3      O 7925   2.210   0.860   4.348  0.4225  0.7389  0.1342
 2638TP3     H1 7926   2.210   0.872   4.443  0.5096 -0.0608  0.2442
 2638TP3     H2 7927   2.118   0.868   4.323 -0.0397 -1.8108  0.6932
 2639TP3      O 7928   2.156   0.946   5.264  0.2015  0.3685  0.0400
 2639TP3     H1 7929   2.192   0.886   5.330 -0.0884  0.1513  0.0002
 2639TP3     H2 7930   2.119   0.889   5.197 -1.4610  0.5802  0.7509
 2640TP3      O 7931   3.372   2.157   4.606  0.1525 -0.3062  0.4936
 2640TP3     H1 7932   3.418   2.229   4.648  1.4051  0.0369 -1.3191
 2640TP3     H2 7933   3.423   2.079   4.627 -0.0741 -0.3596  0.8404
 2641TP3      O 7934   3.847   5.936   4.262  0.5540  0.4913 -0.0439
 2641TP3     H1 7935   3.762   5.911   4.300  1.1352  0.9222  1.6191
 2641TP3     H2 7936   3.835   6.028   4.238  0.2507  0.2766 -0.7422
 2642TP3      O 7937   3.567   0.579   4.319  0.8328  0.7600  0.0775
 2642TP3     H1 7938   3.506   0.601   4.249  1.6344  0.8090 -0.6096
 2642TP3     H2 7939   3.596   0.490   4.299 -1.9171 -0.8826  2.4952
 2643TP3      O 7940   2.958   0.514   4.793  0.5260  0.1812 -0.0256
 2643TP3     H1 7941   2.977   0.447   4.859 -0.4313 -0.3768 -0.2926
 2643TP3     H2 7942   2.878   0.556   4.825 -1.5534 -1.8802 -2.0822
 2644TP3      O 7943   2.353   1.165   5.671  1.1146 -0.3460 -0.0254
 2644TP3     H1 7944   2.301   1.127   5.742  0.3265 -2.6219 -1.7334
 2644TP3     H2 7945   2.305   1.244   5.647 -0.7806 -1.5901 -0.5385
 2645TP3      O 7946   2.876   0.745   4.187  0.0630  0.0175 -0.3406
 2645TP3     H1 7947   2.918   0.658   4.188 -2.2667 -1.1750  0.4485
 2645TP3     H2 7948   2.828   0.747   4.104 -0.2682  0.3578 -0.1429
 2646TP3      O 7949   3.751   0.845   5.683  0.2940  0.2542  0.1265
 2646TP3     H1 7950   3.695   0.922   5.690 -0.6653 -0.3720 -0.3674
 2646TP3     H2 7951   3.707   0.779   5.738  0.8116 -0.1041  0.1177
 2647TP3      O 7952   1.790   2.019   5.620 -0.0902  0.0621 -0.2996
 2647TP3     H1 7953   1.826   1.992   5.705  1.6368  2.0236 -0.3286
 2647TP3     H2 7954   1.832   1.961   5.557 -1.1896 -1.2371  0.1054
 2648TP3      O 7955   3.759   1.515   4.639  0.4521  0.3737  0.3195
 2648TP3     H1 7956   3.828   1.483   4.582  0.5639 -1.4664  1.4235
 2648TP3     H2 7957   3.719   1.436   4.675 -2.6210  1.3090 -0.6894
 2649TP3      O 7958   2.716   0.662   4.903  0.6669 -0.5558  0.1977
 2649TP3     H1 7959   2.716   0.757   4.895  0.4474 -0.5406  0.3551
 2649TP3     H2 7960   2.700   0.631   4.814  0.7860 -0.4478  0.1377
 2650TP3      O 7961   3.030   5.988   5.030  0.7867 -0.0287 -0.4586
 2650TP3     H1 7962   3.040   5.893   5.043 -1.8705 -0.5187 -1.4948
 2650TP3     H2 7963   2.936   6.002   5.027  1.1135  2.7489  0.0181
 2651TP3      O 7964   2.190   2.255   4.934 -0.2786 -0.1163  0.0142
 2651TP3     H1 7965   2.141   2.260   4.851  0.2346 -0.2336 -0.3006
 2651TP3     H2 7966   2.122   2.243   5.001 -0.8221  1.6035 -0.1997
 2652TP3      O 7967   4.307   0.556   5.489  0.4286  0.4689  0.1356
 2652TP3     H1 7968   4.283   0.648   5.480 -0.8988  0.1741  0.3399
 2652TP3     H2 7969   4.312   0.524   5.399 -0.0014  0.5359  0.0857
 2653TP3      O 7970   3.165   0.933   3.376 -0.0887 -0.5912 -0.0764
 2653TP3     H1 7971   3.109   0.979   3.439  0.1428 -1.5625  0.8717
 2653TP3     H2 7972   3.137   0.842   3.381 -0.5661 -0.5967 -1.9496
 2654TP3      O 7973   1.292   1.444   4.634 -0.3378  0.5645 -0.1769
 2654TP3     H1 7974   1.250   1.382   4.574  3.8952 -1.1614 -1.6825
 2654TP3     H2 7975   1.313   1.520   4.580 -0.5204  0.9699  0.3123
 2655TP3      O 7976   2.248   1.412   5.645  0.1024  0.1402  0.1785
 2655TP3     H1 7977   2.297   1.493   5.633  1.6600 -0.6551  0.9645
 2655TP3     H2 7978   2.194   1.428   5.722  1.8458 -0.1847  1.5333
 2656TP3      O 7979   2.543   1.700   2.958 -0.3341  0.0144 -1.1056
 2656TP3     H1 7980   2.594   1.746   3.024 -1.2498 -1.6108  0.8305
 2656TP3     H2 7981   2.452   1.719   2.980 -0.6647 -0.3306 -2.1048
 2657TP3      O 7982   2.833   0.504   5.461  0.5007  0.4588  0.0525
 2657TP3     H1 7983   2.832   0.516   5.366  0.3280 -2.0128 -0.3322
 2657TP3     H2 7984   2.751   0.542   5.491  0.9561  2.0628 -0.6397
 2658TP3      O 7985   2.084   0.589   4.033 -0.1106 -0.3099  0.4484
 2658TP3     H1 7986   2.158   0.578   4.093 -0.3986 -0.2927  0.8152
 2658TP3     H2 7987   2.086   0.682   4.009  1.3386 -0.7469 -1.3481
 2659TP3      O 7988   2.885   1.402   4.280  0.0961  0.2810 -0.6513
 2659TP3     H1 7989   2.832   1.412   4.359 -1.5791 -0.1377 -1.6641
 2659TP3     H2 7990   2.839   1.335   4.229  1.4528  0.1207 -1.7263
 2660TP3      O 7991   1.310   1.763   3.418  0.6737 -0.6393  0.0068
 2660TP3     H1 7992   1.283   1.693   3.478 -0.3428 -0.0065  0.3034
 2660TP3     H2 7993   1.344   1.716   3.341 -0.3446 -1.4708  0.0366
 2661TP3      O 7994   3.545   0.379   4.744  0.1812  0.0360 -0.2957
 2661TP3     H1 7995   3.486   0.340   4.809 -1.1742  0.7990 -1.0138
 2661TP3     H2 7996   3.555   0.470   4.773  1.0172 -0.0928 -0.1786
 2662TP3      O 7997   3.633   0.361   5.158  0.2971 -1.0423 -0.1610
 2662TP3     H1 7998   3.669   0.275   5.178  0.9338 -0.9086 -0.6907
 2662TP3     H2 7999   3.705   0.409   5.117 -0.2143 -0.4532 -0.4054
 2663TP3      O 8000   1.509   1.041   5.325 -0.0444  0.0447  0.4637
 2663TP3     H1 8001   1.504   1.070   5.416 -1.7372  1.2244  0.0620
 2663TP3     H2 8002   1.522   0.947   5.330 -0.8820 -0.0299  1.9555
 2664TP3      O 8003   2.444   1.831   4.091 -0.2759  0.2424  0.0342
 2664TP3     H1 8004   2.455   1.913   4.042 -0.7565  0.0012 -0.4784
 2664TP3     H2 8005   2.358   1.798   4.065  0.4796 -1.1373 -0.8393
 2665TP3      O 8006   3.582   1.269   5.315 -0.6286  0.1972  0.4482
 2665TP3     H1 8007   3.577   1.351   5.364  0.6446  0.2763  0.4807
 2665TP3     H2 8008   3.529   1.207   5.365  1.2886  0.0437  2.4270
 2666TP3      O 8009   3.840   0.646   3.785 -0.7604  0.4410 -0.0528
 2666TP3     H1 8010   3.854   0.562   3.741  1.5241  0.4472  0.5716
 2666TP3     H2 8011   3.857   0.712   3.718  1.1316  0.4200  0.3509
 2667TP3      O 8012   2.123   1.423   5.364 -0.7196  0.1414 -0.2934
 2667TP3     H1 8013   2.103   1.463   5.449 -0.3032  0.3448 -0.2884
 2667TP3     H2 8014   2.072   1.341   5.364  1.2823 -1.2074  1.2743
 2668TP3      O 8015   3.351   1.500   4.752  0.9791 -0.0583 -0.4084
 2668TP3     H1 8016   3.423   1.458   4.704  2.4452  1.2279  0.6101
 2668TP3     H2 8017   3.302   1.546   4.684 -0.2521 -2.6812 -1.4543
 2669TP3      O 8018   2.860   1.603   5.768 -0.3718  0.1694  0.1252
 2669TP3     H1 8019   2.869   1.695   5.742 -1.2660  0.2252 -0.0149
 2669TP3     H2 8020   2.797   1.604   5.841 -2.0480 -0.5106 -1.2333
 2670TP3      O 8021   2.622   0.255   0.048 -0.0823 -0.0575 -0.5405
 2670TP3     H1 8022   2.616   0.249  -0.047 -1.1312  0.6869 -0.5395
 2670TP3     H2 8023   2.537   0.223   0.079  0.2143 -0.1969  0.1443
 2671TP3      O 8024   2.753   1.210   4.981  0.8910  0.2666 -0.0408
 2671TP3     H1 8025   2.808   1.281   4.949  0.2998  0.2870 -1.0600
 2671TP3     H2 8026   2.682   1.254   5.028 -0.0719  0.4368 -1.6011
 2672TP3      O 8027   4.248   1.785   4.283  0.7567  0.6079 -0.5911
 2672TP3     H1 8028   4.204   1.807   4.201  0.2687  0.3799 -0.3973
 2672TP3     H2 8029   4.334   1.752   4.256  0.7002  0.7810 -0.9940
 2673TP3      O 8030   2.848   0.953   4.608 -0.0607  0.3763  0.3661
 2673TP3     H1 8031   2.861   1.033   4.558 -1.1980 -0.4643 -1.3877
 2673TP3     H2 8032   2.926   0.946   4.662  0.8263  1.8241 -0.6501
 2674TP3      O 8033   2.733   0.796   4.432 -0.5086  0.1989  0.4280
 2674TP3     H1 8034   2.785   0.775   4.354  0.2909 -1.2178  1.3149
 2674TP3     H2 8035   2.784   0.863   4.477 -2.5681  3.6432 -1.8725
 2675TP3      O 8036   3.238   1.925   3.801  0.0053 -0.6136 -0.2744
 2675TP3     H1 8037   3.278   1.967   3.878 -2.2060  2.4393 -0.6206
 2675TP3     H2 8038   3.304   1.934   3.733  0.6790 -0.2189  0.4033
 2676TP3      O 8039   3.429   0.575   0.019 -0.1868 -0.0793 -0.3071
 2676TP3     H1 8040   3.501   0.577   0.082 -0.2934  0.7137 -0.1976
 2676TP3     H2 8041   3.356   0.615   0.066 -0.0086  1.4097 -1.2207
 2677TP3      O 8042   3.255   1.126   4.657 -0.3460  0.0411  0.2499
 2677TP3     H1 8043   3.199   1.059   4.619  0.4461 -0.9342  0.7603
 2677TP3     H2 8044   3.224   1.208   4.618 -2.0886 -0.4595  0.5050
 2678TP3      O 8045   3.439   0.095   5.400  0.1335 -0.1550 -0.1564
 2678TP3     H1 8046   3.434   0.082   5.495 -0.8240  1.0103 -0.0243
 2678TP3     H2 8047   3.356   0.061   5.367  1.0357 -1.8657 -0.7750
 2679TP3      O 8048   4.030   5.977   4.729 -0.4057 -0.4734 -0.2658
 2679TP3     H1 8049   4.021   5.932   4.813  0.0929 -0.0251  0.0333
 2679TP3     H2 8050   4.112   6.026   4.736 -1.0212  0.6418 -0.5008
 2680TP3      O 8051   2.961   0.377   5.023  0.8797 -0.4302  0.0349
 2680TP3     H1 8052   2.957   0.458   5.073 -0.4517 -0.7163  0.4307
 2680TP3     H2 8053   3.023   0.322   5.071 -0.3865 -0.7102  1.4170
 2681TP3      O 8054   2.117   1.604   5.140  0.0247 -0.5127 -0.0949
 2681TP3     H1 8055   2.105   1.540   5.211 -1.6425  0.6871  0.7707
 2681TP3     H2 8056   2.059   1.574   5.070 -0.9392  0.1334  0.4027
 2682TP3      O 8057   1.876   2.068   5.299 -0.2757  0.0237  0.5193
 2682TP3     H1 8058   1.962   2.083   5.259  0.2297 -0.3994  1.4238
 2682TP3     H2 8059   1.884   1.982   5.339 -1.2791 -0.2100  0.2334
 2683TP3      O 8060   3.142   0.800   3.671  0.3173  0.2309  0.3414
 2683TP3     H1 8061   3.078   0.731   3.689 -0.0126  0.5637  0.4553
 2683TP3     H2 8062   3.222   0.753   3.648 -0.8560 -0.3026 -3.3303
 2684TP3      O 8063   3.473   0.281   0.125 -0.3953 -0.2223  0.3450
 2684TP3     H1 8064   3.379   0.295   0.111 -0.1055  2.5657  0.6579
 2684TP3     H2 8065   3.515   0.354   0.079  1.4448  0.1729  2.4900
 2685TP3      O 8066   3.869   0.714   4.265  0.0293  0.1642  0.3903
 2685TP3     H1 8067   3.774   0.726   4.269  0.2447  3.1069 -0.8861
 2685TP3     H2 8068   3.881   0.642   4.203 -1.3417 -0.1017  0.3900
 2686TP3      O 8069   2.907   0.081   4.658  0.2156 -0.1035 -0.1477
 2686TP3     H1 8070   2.933   0.045   4.742 -0.5717  0.4430  0.3387
 2686TP3     H2 8071   2.974   0.147   4.638 -0.4717  0.9466  0.8632
 2687TP3      O 8072   3.313   1.934   4.887  0.1500 -0.5642 -0.0771
 2687TP3     H1 8073   3.325   2.010   4.945 -1.1464 -0.5436  0.1955
 2687TP3     H2 8074   3.396   1.926   4.840  0.4649  0.7550  0.2194
 2688TP3      O 8075   2.612   2.587   4.388 -0.4304  0.4506 -0.2571
 2688TP3     H1 8076   2.594   2.589   4.482 -2.6358  0.0609 -0.6141
 2688TP3     H2 8077   2.547   2.526   4.352 -0.2934  1.3373 -2.1600
 2689TP3      O 8078   3.443   0.432   4.027  0.4867  0.0899 -0.0075
 2689TP3     H1 8079   3.460   0.527   4.025 -1.0494  0.3844 -0.6684
 2689TP3     H2 8080   3.458   0.403   3.937  2.5307 -0.6512  0.5092
 2690TP3      O 8081   2.903   1.432   4.910 -0.0283  0.8881 -0.1818
 2690TP3     H1 8082   2.881   1.505   4.968  0.3411  0.8489  0.0121
 2690TP3     H2 8083   2.998   1.435   4.903 -0.0452  0.6913 -0.5251
 2691TP3      O 8084   3.658   0.920   4.361  0.5269 -0.1209 -0.2451
 2691TP3     H1 8085   3.566   0.910   4.384  0.6077  0.1700  0.2118
 2691TP3     H2 8086   3.696   0.967   4.435  0.3709  2.7812 -1.8772
 2692TP3      O 8087   3.000   0.539   4.510 -0.4822  0.2872  0.5897
 2692TP3     H1 8088   2.985   0.563   4.602 -1.9065 -0.7893  0.6812
 2692TP3     H2 8089   3.023   0.447   4.513 -1.8640 -0.1091 -0.2129
 2693TP3      O 8090   2.515   1.244   5.882  0.2155 -0.9626 -0.0401
 2693TP3     H1 8091   2.497   1.180   5.951 -0.9768 -1.2276 -0.5738
 2693TP3     H2 8092   2.451   1.225   5.814 -0.4776  1.0970 -0.0244
 2694TP3      O 8093   2.663   2.375   3.787 -0.6643  0.7263  0.9813
 2694TP3     H1 8094   2.712   2.320   3.849 -2.3557 -1.4623  0.4804
 2694TP3     H2 8095   2.600   2.423   3.842 -2.2422 -1.2952  1.0354
 2695TP3      O 8096   1.973   0.369   5.388 -0.0439 -0.2756  0.0552
 2695TP3     H1 8097   2.052   0.418   5.406 -1.1204  0.3251  4.1603
 2695TP3     H2 8098   1.902   0.423   5.422 -2.0833 -1.6336 -1.7112
 2696TP3      O 8099   2.215   0.132   3.849  0.3361  0.6634  0.1246
 2696TP3     H1 8100   2.132   0.126   3.896 -1.6035  1.1150 -2.9681
 2696TP3     H2 8101   2.220   0.224   3.821  0.3928  0.0305 -2.1051
 2697TP3      O 8102   1.775   2.144   4.892  0.2061 -0.2474 -0.1359
 2697TP3     H1 8103   1.718   2.079   4.933  2.3121 -0.6618  2.4362
 2697TP3     H2 8104   1.841   2.092   4.847 -0.4415  0.2153 -1.6813
 2698TP3      O 8105   4.366   0.124   3.577  0.1211  0.5080 -0.2897
 2698TP3     H1 8106   4.347   0.084   3.662 -1.9848  1.6382 -0.1743
 2698TP3     H2 8107   4.413   0.205   3.599 -0.8221  1.0279 -0.1520
 2699TP3      O 8108   2.041   2.314   4.705 -0.3781  0.5087 -0.5825
 2699TP3     H1 8109   1.958   2.355   4.681 -2.3526 -0.2245  3.9796
 2699TP3     H2 8110   2.021   2.221   4.711  0.2715  0.4434  1.7986
 2700TP3      O 8111   3.710   0.793   4.922  0.1665  0.3881  0.0714
 2700TP3     H1 8112   3.657   0.748   4.988 -0.8159  1.9728  0.4253
 2700TP3     H2 8113   3.686   0.749   4.840 -0.0669 -0.3291  0.5086
 2701TP3      O 8114   2.715   0.642   3.971  0.2256  0.2210 -0.1670
 2701TP3     H1 8115   2.664   0.715   4.008  0.9592  0.7008 -0.0790
 2701TP3     H2 8116   2.691   0.567   4.025  1.7753  1.0421  1.7896
 2702TP3      O 8117   2.685   0.203   5.230 -0.4939 -0.0082  0.0338
 2702TP3     H1 8118   2.663   0.247   5.148 -1.6050 -1.0547 -0.2588
 2702TP3     H2 8119   2.713   0.116   5.203 -1.5898 -0.6129  0.8005
 2703TP3      O 8120   2.659   0.942   3.770  0.8062 -0.1998 -0.1515
 2703TP3     H1 8121   2.684   0.853   3.796  0.0813 -0.1900  0.6094
 2703TP3     H2 8122   2.566   0.935   3.748  0.8177  0.3178 -0.3745
 2704TP3      O 8123   2.794   0.055   5.578  0.4919  0.0588  0.6683
 2704TP3     H1 8124   2.741   0.128   5.611  1.0902  1.8122 -1.9046
 2704TP3     H2 8125   2.740  -0.022   5.591 -1.8762  1.5080 -0.0266
 2705TP3      O 8126   2.478   1.538   4.439  0.1207  0.1348 -0.1783
 2705TP3     H1 8127   2.538   1.479   4.484  0.5769  0.7265 -0.0056
 2705TP3     H2 8128   2.533   1.585   4.375 -0.4161 -0.3115 -0.9875
 2706TP3      O 8129   2.767   0.083   4.989 -0.1760 -0.2154  0.1282
 2706TP3     H1 8130   2.672   0.081   4.997 -0.2038 -0.7555 -0.3150
 2706TP3     H2 8131   2.786   0.171   4.957 -0.5406 -0.1636  0.0509
 2707TP3      O 8132   2.756   1.121   3.958  0.1223 -0.1428 -0.0817
 2707TP3     H1 8133   2.837   1.142   3.911 -0.9258  0.3324 -1.7654
 2707TP3     H2 8134   2.720   1.045   3.913  0.0588 -0.9236  1.2270
 2708TP3      O 8135   2.469   0.134   5.007 -0.7106  0.1739 -0.3351
 2708TP3     H1 8136   2.443   0.083   5.083 -0.9569  0.7908 -0.0004
 2708TP3     H2 8137   2.395   0.192   4.990  0.5677  2.2662  0.8939
 2709TP3      O 8138   1.881   5.682   3.982 -0.1272  0.2470  0.2096
 2709TP3     H1 8139   1.890   5.607   4.041 -1.4485 -0.6873 -0.7164
 2709TP3     H2 8140   1.901   5.758   4.037  1.5151 -0.7762  1.1035
 2710TP3      O 8141   3.121   1.263   3.427  0.0547  0.2016  0.2230
 2710TP3     H1 8142   3.134   1.350   3.465  0.1214 -0.5586  2.0066
 2710TP3     H2 8143   3.118   1.204   3.502 -1.0145 -1.2249 -0.8904
 2711TP3      O 8144   2.746   0.146   3.390  0.1438 -0.0240 -0.4648
 2711TP3     H1 8145   2.752   0.053   3.368  2.1038 -0.4631  1.5272
 2711TP3     H2 8146   2.744   0.147   3.486 -0.4755  1.9799 -0.4672
 2712TP3      O 8147   2.590   0.953   4.851 -0.1217  0.4968 -0.1368
 2712TP3     H1 8148   2.644   0.990   4.920 -1.4175 -1.7168  2.2408
 2712TP3     H2 8149   2.500   0.973   4.877 -0.8023 -2.8568  0.5660
 2713TP3      O 8150   2.504   1.075   5.463 -0.8482  0.1161  0.6618
 2713TP3     H1 8151   2.521   0.981   5.473  1.4752  0.7089  4.2251
 2713TP3     H2 8152   2.456   1.098   5.542  0.3633  2.2163  0.8467
 2714TP3      O 8153   4.155   1.954   3.836  0.0732 -0.8780  0.5886
 2714TP3     H1 8154   4.142   1.947   3.931  0.8934 -2.0521  0.6347
 2714TP3     H2 8155   4.176   2.046   3.822 -1.4809 -0.3754  1.3477
 2715TP3      O 8156   2.306   1.302   4.508 -1.1006  0.1568  0.0316
 2715TP3     H1 8157   2.361   1.366   4.464  0.7951 -0.2503  1.6481
 2715TP3     H2 8158   2.217   1.322   4.478 -0.0663  0.4554 -3.1558
 2716TP3      O 8159   2.689   1.542   3.850  0.2015 -0.2051  0.2052
 2716TP3     H1 8160   2.760   1.525   3.912  2.8235  2.3036 -1.8284
 2716TP3     H2 8161   2.659   1.630   3.871 -1.2348 -0.6154 -0.0147
 2717TP3      O 8162   3.231   0.589   4.336 -0.1748  0.0158  0.4088
 2717TP3     H1 8163   3.204   0.544   4.416  2.0558 -1.1440  0.5684
 2717TP3     H2 8164   3.280   0.665   4.367 -0.1947  0.1430  0.1283
 2718TP3      O 8165   2.132   0.435   4.785 -0.1748  0.5134  0.1655
 2718TP3     H1 8166   2.089   0.488   4.852  0.9307  0.0227  1.2941
 2718TP3     H2 8167   2.117   0.345   4.813 -2.2087  0.1261 -1.8414
 2719TP3      O 8168   3.381   0.918   5.210 -0.1092  0.4106  0.2022
 2719TP3     H1 8169   3.344   1.004   5.231  0.8188  0.8255  0.1890
 2719TP3     H2 8170   3.449   0.904   5.275 -1.9379 -1.5327  1.8878
 2720TP3      O 8171   3.354   1.099   4.230  0.5321  0.1646 -0.3955
 2720TP3     H1 8172   3.437   1.146   4.220 -0.0690  1.0606 -1.4750
 2720TP3     H2 8173   3.353   1.071   4.321  1.9331  0.2955 -0.3135
 2721TP3      O 8174   3.148   5.969   4.780 -0.2187 -0.1731  0.4223
 2721TP3     H1 8175   3.240   5.987   4.798  0.1492 -3.0668  2.1869
 2721TP3     H2 8176   3.103   5.988   4.863 -1.2213  1.0512 -0.3695
 2722TP3      O 8177   3.414   1.405   5.656 -0.5125  0.2364  0.1905
 2722TP3     H1 8178   3.451   1.445   5.577 -3.3298 -0.5116 -1.6536
 2722TP3     H2 8179   3.331   1.452   5.670 -0.1314  0.2894  2.7045
 2723TP3      O 8180   3.844   0.082   4.517  0.1443 -0.2085 -0.3697
 2723TP3     H1 8181   3.875   0.088   4.427  0.5383  2.4288 -0.1572
 2723TP3     H2 8182   3.910   0.029   4.562  1.1112  0.2692 -1.1932
 2724TP3      O 8183   4.438   1.202   3.747  0.4182 -0.1922 -0.8125
 2724TP3     H1 8184   4.376   1.273   3.729 -1.8968 -1.5473  1.2265
 2724TP3     H2 8185   4.426   1.141   3.674 -1.6124 -0.9716  0.0917
 2725TP3      O 8186   2.215   1.414   3.873  0.4054  0.2258  0.5551
 2725TP3     H1 8187   2.211   1.498   3.919 -0.6074  0.1932  0.5485
 2725TP3     H2 8188   2.169   1.431   3.790  1.2638 -0.0100  0.0166
 2726TP3      O 8189   3.625   2.102   4.306 -0.5083 -0.6582 -0.3712
 2726TP3     H1 8190   3.563   2.038   4.341 -0.7305 -0.0642  0.3476
 2726TP3     H2 8191   3.670   2.135   4.383 -1.7163  1.4288 -0.4855
 2727TP3      O 8192   3.171   1.290   4.053  0.7110 -0.5477 -0.3018
 2727TP3     H1 8193   3.177   1.382   4.076  3.5348 -0.5259 -0.7010
 2727TP3     H2 8194   3.248   1.250   4.094  1.9926 -1.8330 -3.5475
 2728TP3      O 8195   2.575   0.104   4.062  0.5082  0.5025  0.2931
 2728TP3     H1 8196   2.657   0.094   4.111 -0.1115 -0.8771  1.1300
 2728TP3     H2 8197   2.520   0.157   4.119  0.0239 -0.5436  0.8439
 2729TP3      O 8198   3.931   0.219   5.057 -0.0041 -0.1450 -0.0024
 2729TP3     H1 8199   3.892   0.184   4.976  0.5117 -0.4385 -0.1279
 2729TP3     H2 8200   3.984   0.147   5.091 -0.8437 -0.3024  1.0333
 2730TP3      O 8201   3.411   1.462   4.430  0.2581 -0.4019 -0.5160
 2730TP3     H1 8202   3.496   1.418   4.423  1.3563  1.7933 -2.1975
 2730TP3     H2 8203   3.433   1.554   4.448 -1.8698 -0.1041  0.9656
 2731TP3      O 8204   4.071   1.266   4.723 -0.6409 -0.5353  0.3016
 2731TP3     H1 8205   4.087   1.173   4.706 -0.8720 -0.8771  1.7958
 2731TP3     H2 8206   3.987   1.268   4.769 -0.4222  0.3608  0.6919
 2732TP3      O 8207   2.685   1.179   4.691  0.1745  0.8288  0.6069
 2732TP3     H1 8208   2.711   1.087   4.683  0.9341  1.1029 -0.2836
 2732TP3     H2 8209   2.698   1.199   4.783  3.1853  0.9175  0.2591
 2733TP3      O 8210   3.987   0.734   5.117  0.1989 -0.2597  0.2747
 2733TP3     H1 8211   3.940   0.737   5.201 -3.3744  0.1106 -1.5323
 2733TP3     H2 8212   3.982   0.642   5.091 -1.9851  0.1656 -1.0737
 2734TP3      O 8213   3.070   5.557   5.380  0.2162 -0.7576 -0.0375
 2734TP3     H1 8214   3.116   5.543   5.297 -0.0291 -0.8723 -0.1553
 2734TP3     H2 8215   3.019   5.637   5.365  2.0764  0.6725  0.8271
 2735TP3      O 8216   2.507   1.610   5.106  0.0202 -1.0219 -0.7569
 2735TP3     H1 8217   2.440   1.663   5.062 -0.0573 -1.6404 -1.4059
 2735TP3     H2 8218   2.460   1.567   5.177  0.5855  1.6910  1.4489
 2736TP3      O 8219   3.946   1.372   4.486 -0.2423 -0.1286 -0.4601
 2736TP3     H1 8220   4.007   1.348   4.556 -0.8847 -1.3089 -0.2887
 2736TP3     H2 8221   4.003   1.395   4.413  0.4488  1.2990  0.4716
 2737TP3      O 8222   2.081   0.978   5.582  0.2766  0.5945 -0.6261
 2737TP3     H1 8223   2.000   1.030   5.587 -0.5312 -0.4912 -1.7823
 2737TP3     H2 8224   2.128   1.001   5.662 -2.6130 -1.0318  1.7686
 2738TP3      O 8225   3.030   5.876   5.339  0.1838  0.0371  1.0480
 2738TP3     H1 8226   3.102   5.886   5.278 -2.6449  1.1866 -2.4799
 2738TP3     H2 8227   3.014   5.965   5.372 -0.8928  0.2224  0.0918
 2739TP3      O 8228   1.181   1.478   5.295  0.0002 -0.0119 -0.1012
 2739TP3     H1 8229   1.183   1.384   5.307  0.6317 -0.1075 -0.8463
 2739TP3     H2 8230   1.088   1.501   5.299 -0.0967 -0.5409  0.9087
 2740TP3      O 8231   2.923   1.169   4.464  0.4047 -0.4628  0.6100
 2740TP3     H1 8232   3.002   1.185   4.413 -0.1620  1.1371  0.1604
 2740TP3     H2 8233   2.851   1.188   4.403 -0.2957  1.4449  1.9482
 2741TP3      O 8234   3.272   1.163   5.374  0.0033 -0.2188  0.1826
 2741TP3     H1 8235   3.304   1.195   5.459 -1.2742 -0.0121  0.6181
 2741TP3     H2 8236   3.232   1.078   5.394 -0.5931 -0.0216 -0.1486
 2742TP3      O 8237   1.915   1.122   4.199  0.1504  0.6213  0.2609
 2742TP3     H1 8238   1.857   1.198   4.209  1.4447  1.8303 -0.9160
 2742TP3     H2 8239   1.962   1.117   4.282 -0.9552  0.1880  0.8834
 2743TP3      O 8240   3.483   2.578   5.022  0.6086  0.1642 -0.6246
 2743TP3     H1 8241   3.489   2.672   5.035  1.5921  0.1521 -0.9026
 2743TP3     H2 8242   3.509   2.565   4.930  1.8353 -0.4888 -0.2101
 2744TP3      O 8243   4.037   0.696   4.485 -0.2096 -0.3267  0.3162
 2744TP3     H1 8244   3.968   0.686   4.420  0.3837 -4.2340  0.0176
 2744TP3     H2 8245   4.000   0.658   4.565  0.7589 -0.2052  0.8347
 2745TP3      O 8246   2.030   1.178   5.272  1.0534 -0.3090  0.1504
 2745TP3     H1 8247   1.943   1.161   5.307 -0.9080 -0.0350 -3.9403
 2745TP3     H2 8248   2.077   1.095   5.285  0.8277 -0.0237  3.6672
 2746TP3      O 8249   2.358   0.734   0.261 -0.0219 -0.2814 -0.1661
 2746TP3     H1 8250   2.373   0.641   0.275  0.3322 -0.0504  1.1628
 2746TP3     H2 8251   2.342   0.769   0.349  2.2597  1.3167 -0.3006
 2747TP3      O 8252   4.466   1.199   5.264 -0.3629 -1.2891  0.4277
 2747TP3     H1 8253   4.530   1.150   5.212  0.6514  0.5400 -0.1210
 2747TP3     H2 8254   4.519   1.247   5.328 -0.9192  1.5499 -1.0732
 2748TP3      O 8255   2.866   5.320   5.070  0.2807  0.7303 -0.3379
 2748TP3     H1 8256   2.839   5.290   5.157  1.3976 -0.5310 -0.3816
 2748TP3     H2 8257   2.787   5.315   5.017 -0.2131  0.6644  0.3963
 2749TP3      O 8258   3.366   5.918   0.184 -0.3826  0.8005  0.7376
 2749TP3     H1 8259   3.335   5.998   0.226 -0.0088  0.9050  0.8167
 2749TP3     H2 8260   3.453   5.903   0.221  0.3925  1.4617 -0.7280
 2750TP3      O 8261   2.469   1.933   4.353  0.5279  0.2794 -0.1888
 2750TP3     H1 8262   2.433   1.882   4.281  2.0971 -0.4430 -0.5167
 2750TP3     H2 8263   2.563   1.936   4.336  1.0162 -0.2724  2.0123
 2751TP3      O 8264   2.745   1.164   4.227  0.1114  0.3134  0.7001
 2751TP3     H1 8265   2.692   1.101   4.274 -0.4235  0.8184  0.7831
 2751TP3     H2 8266   2.741   1.135   4.135  2.1431 -1.3716  1.0839
 2752TP3      O 8267   3.495   0.712   4.053  0.1285 -0.0161  0.0713
 2752TP3     H1 8268   3.420   0.752   4.097  2.6213  1.0901  3.7344
 2752TP3     H2 8269   3.526   0.780   3.993 -1.2645 -0.2290 -0.9576
 2753TP3      O 8270   1.262   0.020   5.099  0.4046  0.3473 -0.3701
 2753TP3     H1 8271   1.327  -0.019   5.158  2.0946  0.2371 -2.2093
 2753TP3     H2 8272   1.193   0.052   5.157  1.1561 -1.2826  1.5236
 2754TP3      O 8273   1.542   1.451   5.075  0.4224  0.0484  0.1503
 2754TP3     H1 8274   1.635   1.457   5.098  0.3281 -0.3275  0.6301
 2754TP3     H2 8275   1.498   1.507   5.138  0.4455  1.2793 -0.8934
 2755TP3      O 8276   2.647   0.136   4.351  0.2145 -0.4313  0.7919
 2755TP3     H1 8277   2.635   0.041   4.355  1.4885 -0.6370  0.1000
 2755TP3     H2 8278   2.718   0.149   4.288 -1.8045  1.1493 -1.3052
 2756TP3      O 8279   4.333   0.168   5.518 -0.4252 -0.2399  0.1726
 2756TP3     H1 8280   4.394   0.224   5.471  2.4621 -3.0838  0.2379
 2756TP3     H2 8281   4.301   0.223   5.590 -2.1257  2.9926 -2.7614
 2757TP3      O 8282   2.165   0.120   5.298 -0.0780  0.2552  0.0891
 2757TP3     H1 8283   2.124   0.199   5.333 -0.4798  0.0934 -0.0085
 2757TP3     H2 8284   2.126   0.109   5.212  0.3903  0.2589 -0.1276
 2758TP3      O 8285   3.595   6.019   3.652 -0.4473  0.0891  0.3265
 2758TP3     H1 8286   3.521   6.001   3.594  1.4549 -0.5459 -2.0691
 2758TP3     H2 8287   3.624   5.932   3.681 -1.4286  0.4020  2.4176
 2759TP3      O 8288   3.299   0.838   4.948 -0.0568  0.2847 -0.7341
 2759TP3     H1 8289   3.314   0.744   4.955  0.8654  0.4689  0.0255
 2759TP3     H2 8290   3.336   0.874   5.029  3.0500  1.6910 -2.5716
 2760TP3      O 8291   2.612   1.354   5.544  0.4206 -0.0917  0.1454
 2760TP3     H1 8292   2.597   1.277   5.600 -0.6597 -0.2955 -0.4027
 2760TP3     H2 8293   2.571   1.331   5.460 -1.2684  1.6560  0.4252
 2761TP3      O 8294   3.681   1.646   5.664 -0.3068 -0.1044  0.0151
 2761TP3     H1 8295   3.716   1.602   5.741  0.0272  0.0882 -0.0219
 2761TP3     H2 8296   3.600   1.687   5.694 -0.8130 -1.0482 -0.0454
 2762TP3      O 8297   3.158   5.726   5.817 -0.3883  0.4366 -0.1664
 2762TP3     H1 8298   3.219   5.703   5.747  0.3378  2.9887 -0.4677
 2762TP3     H2 8299   3.116   5.807   5.787 -2.3588 -0.0729  1.0072
 2763TP3      O 8300   3.547   0.217   3.838 -0.3195  0.0977 -0.0540
 2763TP3     H1 8301   3.584   0.174   3.915 -0.2857  1.1670  0.5472
 2763TP3     H2 8302   3.572   0.161   3.764  2.4725  0.6895  0.3180
 2764TP3      O 8303   2.563   0.804   2.824  0.1362 -0.4310 -0.1224
 2764TP3     H1 8304   2.621   0.749   2.772  1.7342 -1.6619  2.7182
 2764TP3     H2 8305   2.497   0.744   2.859 -2.6857  0.8394 -2.7591
 2765TP3      O 8306   3.600   1.480   3.897 -0.5652  0.6750 -0.3598
 2765TP3     H1 8307   3.549   1.497   3.977  0.3503 -0.2057  0.4410
 2765TP3     H2 8308   3.537   1.491   3.826 -1.5958  0.7271  0.5291
 2766TP3      O 8309   2.922   1.021   5.056  0.0778  0.2472 -0.1190
 2766TP3     H1 8310   3.005   1.063   5.074 -1.5697  3.5112  0.6483
 2766TP3     H2 8311   2.867   1.090   5.018 -2.1741 -1.8467 -0.9966
 2767TP3      O 8312   1.923   1.020   3.952  0.4641 -0.0580 -0.3166
 2767TP3     H1 8313   1.866   1.078   3.902 -1.3481 -0.8814  0.6924
 2767TP3     H2 8314   1.905   1.041   4.043  2.5777  0.3555  0.0568
 2768TP3      O 8315   3.108   0.953   4.417 -0.5615 -0.4625 -0.1000
 2768TP3     H1 8316   3.066   0.892   4.477  0.8836 -1.6644 -0.2770
 2768TP3     H2 8317   3.047   0.959   4.343 -2.9777  1.9940  1.8951
 2769TP3      O 8318   2.968   0.749   5.553 -0.0905  0.5753 -0.0248
 2769TP3     H1 8319   2.903   0.680   5.537 -1.2274  1.2604  1.3996
 2769TP3     H2 8320   2.933   0.826   5.508 -0.8520  1.2209  1.5858
 2770TP3      O 8321   1.271   0.887   4.133  0.1576  0.0622  0.1941
 2770TP3     H1 8322   1.341   0.889   4.069 -0.6583 -1.5846 -0.8006
 2770TP3     H2 8323   1.218   0.811   4.109 -1.6023  0.8733  1.2969
 2771TP3      O 8324   1.846   1.653   3.786 -0.7070  0.2849  0.1788
 2771TP3     H1 8325   1.867   1.600   3.862  0.0340 -0.0562 -0.2625
 2771TP3     H2 8326   1.907   1.626   3.718 -1.8177  0.0641 -0.7838
 2772TP3      O 8327   2.022   2.026   4.222 -0.2551  0.5212  0.2018
 2772TP3     H1 8328   1.939   2.059   4.256  0.4224  1.3978  1.0430
 2772TP3     H2 8329   2.070   2.104   4.196  0.5979  0.0638  0.3871
 2773TP3      O 8330   2.190   0.572   4.567  0.5421  0.1657 -0.0721
 2773TP3     H1 8331   2.129   0.561   4.494  0.3015  1.1074 -0.0278
 2773TP3     H2 8332   2.156   0.515   4.636  1.3310 -1.5156 -1.0157
 2774TP3      O 8333   2.174   0.939   4.617  0.4019  0.3989 -0.5458
 2774TP3     H1 8334   2.173   0.862   4.674 -0.7740  0.5005 -0.3961
 2774TP3     H2 8335   2.248   0.991   4.648  1.7273 -1.0371 -1.1752
 2775TP3      O 8336   2.370   1.124   4.706  0.2863  0.1861  0.2336
 2775TP3     H1 8337   2.457   1.143   4.673 -0.0355 -0.4516 -1.0665
 2775TP3     H2 8338   2.312   1.179   4.653 -0.4874 -2.7633 -2.3199
 2776TP3      O 8339   2.873   0.977   5.456  0.4618 -0.1944  0.2192
 2776TP3     H1 8340   2.809   0.983   5.385  0.4636  1.7902  0.3391
 2776TP3     H2 8341   2.927   1.055   5.446  3.1519 -1.9628 -0.0877
 2777TP3      O 8342   3.122   0.235   4.665 -0.0824  0.3798 -0.2421
 2777TP3     H1 8343   3.153   0.325   4.674 -0.2844  0.6612 -1.9393
 2777TP3     H2 8344   3.194   0.190   4.621 -0.9588  0.3730 -1.7392
 2778TP3      O 8345   3.928   0.118   0.575 -0.4538 -0.4357 -0.3907
 2778TP3     H1 8346   3.948   0.204   0.536  0.6908 -0.8889 -0.8293
 2778TP3     H2 8347   3.931   0.133   0.669  0.5310 -0.1471 -0.4536
 2779TP3      O 8348   1.882   1.201   5.952  0.5421 -0.1513 -0.2414
 2779TP3     H1 8349   1.895   1.294   5.931  0.3550 -0.5750 -2.4409
 2779TP3     H2 8350   1.792   1.197   5.985 -0.0059  0.2446 -1.6257
 2780TP3      O 8351   2.171   0.666   5.143 -0.8149  0.0083 -0.1264
 2780TP3     H1 8352   2.088   0.621   5.161 -1.4335  0.9100 -0.6753
 2780TP3     H2 8353   2.173   0.676   5.048  1.1499 -2.2612 -0.4328
 2781TP3      O 8354   2.607   1.970   4.580 -0.3575  0.4365 -0.4915
 2781TP3     H1 8355   2.675   1.903   4.573  0.4641  1.3325 -1.4084
 2781TP3     H2 8356   2.530   1.930   4.540 -0.5209 -0.7435  0.9426
 2782TP3      O 8357   1.744   5.935   3.712 -0.0167 -0.1609 -0.0242
 2782TP3     H1 8358   1.694   5.872   3.764  1.4119 -0.4481  1.0789
 2782TP3     H2 8359   1.707   5.928   3.624 -1.5033 -0.7678  0.6112
 2783TP3      O 8360   2.453   0.862   5.241 -0.0207  0.4223  0.7426
 2783TP3     H1 8361   2.384   0.907   5.289 -0.8141 -0.9302  0.9127
 2783TP3     H2 8362   2.533   0.910   5.263 -0.7177  1.2350  1.5474
 2784TP3      O 8363   3.238   0.291   5.181 -0.2331  0.1313 -0.6992
 2784TP3     H1 8364   3.242   0.198   5.205 -0.6738 -0.0300 -1.2259
 2784TP3     H2 8365   3.226   0.336   5.264 -1.9813 -0.4363 -0.5899
 2785TP3      O 8366   2.433   0.309   4.238 -0.1424 -0.0108  0.0291
 2785TP3     H1 8367   2.350   0.262   4.247  1.0749 -2.8405 -2.1213
 2785TP3     H2 8368   2.496   0.257   4.287  1.1473 -0.3415 -1.8919
 2786TP3      O 8369   4.262   1.313   5.041 -0.1274 -0.1006  0.2013
 2786TP3     H1 8370   4.226   1.342   4.957 -1.5976  2.0663  1.5058
 2786TP3     H2 8371   4.189   1.321   5.102  1.8657  2.1620  2.4876
 2787TP3      O 8372   3.216   1.733   5.043  0.2241 -0.0937  0.1139
 2787TP3     H1 8373   3.242   1.784   4.966 -1.0488  0.3165 -0.0639
 2787TP3     H2 8374   3.135   1.774   5.073  0.1136 -0.9358  1.0288
 2788TP3      O 8375   1.128   0.577   5.176 -0.4068 -0.4483  0.6780
 2788TP3     H1 8376   1.068   0.592   5.102 -0.9888  0.1385  1.2606
 2788TP3     H2 8377   1.194   0.518   5.140  0.4880  1.4288 -0.9422
 2789TP3      O 8378   2.798   0.935   5.720 -0.1958  0.3685  0.0858
 2789TP3     H1 8379   2.807   0.953   5.626 -1.2203 -0.7833 -0.2526
 2789TP3     H2 8380   2.744   0.856   5.724  2.7643 -1.7620  1.5331
 2790TP3      O 8381   3.056   5.721   4.703  0.0083  0.2875 -0.5474
 2790TP3     H1 8382   3.029   5.713   4.795 -2.0406 -2.1507 -1.2425
 2790TP3     H2 8383   3.122   5.791   4.704  1.5061 -0.8817  3.0733
 2791TP3      O 8384   3.039   1.846   4.426 -0.5770  0.6010  0.6425
 2791TP3     H1 8385   3.073   1.859   4.514  3.8726 -1.9660 -0.3794
 2791TP3     H2 8386   3.075   1.919   4.375 -0.7654  0.5524  0.4363
 2792TP3      O 8387   1.944   1.561   5.575  0.1846 -0.0465  0.7633
 2792TP3     H1 8388   1.889   1.612   5.635 -0.7536  0.8559 -0.7901
 2792TP3     H2 8389   1.882   1.515   5.519  1.0348 -0.8969  0.4956
 2793TP3      O 8390   4.054   0.962   4.596 -0.1159  0.5280  0.1967
 2793TP3     H1 8391   4.008   0.944   4.678 -0.8963 -0.0169 -0.3432
 2793TP3     H2 8392   4.055   0.877   4.550  0.3699  0.8067 -0.3246
 2794TP3      O 8393   1.833   1.700   5.032 -0.3847 -0.1432 -0.0877
 2794TP3     H1 8394   1.820   1.634   5.100 -0.0744 -0.8347 -0.6932
 2794TP3     H2 8395   1.891   1.659   4.968 -1.0995  0.2897 -1.0540
 2795TP3      O 8396   2.903   1.558   3.654  0.1416 -0.7730  0.1645
 2795TP3     H1 8397   2.879   1.506   3.578 -1.4187  1.4029 -0.9433
 2795TP3     H2 8398   2.834   1.540   3.718 -0.4566 -0.0659 -0.2576
 2796TP3      O 8399   3.784   1.909   4.124  0.1337  0.3086 -0.5539
 2796TP3     H1 8400   3.745   1.825   4.150  1.9295  0.6016  3.9905
 2796TP3     H2 8401   3.734   1.974   4.172  2.8837  1.1011  1.4565
 2797TP3      O 8402   3.593   5.496   4.354 -0.4173 -0.3245 -0.4896
 2797TP3     H1 8403   3.577   5.433   4.284 -0.6500 -2.7716  1.6007
 2797TP3     H2 8404   3.670   5.544   4.326 -0.6068 -1.1024 -2.4791
 2798TP3      O 8405   2.517   0.868   4.584 -0.0143 -0.3804  0.0882
 2798TP3     H1 8406   2.537   0.879   4.676  0.6316 -1.6296  0.1204
 2798TP3     H2 8407   2.598   0.835   4.545  0.5548  2.5337 -1.4497
 2799TP3      O 8408   3.489   0.939   4.771  0.3748 -0.0194  0.4279
 2799TP3     H1 8409   3.552   0.925   4.842  0.2322 -1.4154  0.3008
 2799TP3     H2 8410   3.404   0.940   4.815  0.4685  2.3280  0.6603
 2800TP3      O 8411   2.597   1.992   5.396  0.4486  0.1006 -0.0151
 2800TP3     H1 8412   2.569   2.084   5.393 -1.7614 -0.4684  0.9489
 2800TP3     H2 8413   2.634   1.976   5.309 -1.6627  1.1961 -1.2025
 2801TP3      O 8414   2.874   1.458   4.014  0.1095  0.1662  0.3862
 2801TP3     H1 8415   2.894   1.458   4.107 -0.8733 -1.5662  0.6439
 2801TP3     H2 8416   2.948   1.412   3.973 -1.6036 -3.4469  0.9685
 2802TP3      O 8417   2.701   1.756   4.247  0.4282  0.8823 -0.6155
 2802TP3     H1 8418   2.660   1.733   4.164  0.2220  1.0542 -0.5623
 2802TP3     H2 8419   2.737   1.844   4.233 -1.1903  1.6960  0.0267
 2803TP3      O 8420   2.312   1.806   5.406  0.1911 -0.0913  0.4246
 2803TP3     H1 8421   2.384   1.743   5.407 -0.3527 -0.7153  0.7987
 2803TP3     H2 8422   2.301   1.829   5.314  1.3931  0.6273  0.4377
 2804TP3      O 8423   2.743   1.586   5.511 -0.4634 -0.2646 -0.2642
 2804TP3     H1 8424   2.692   1.505   5.502 -0.1964 -0.2484 -2.4673
 2804TP3     H2 8425   2.781   1.580   5.598  0.1509 -2.9033 -0.6022
 2805TP3      O 8426   1.999   0.525   4.357  0.1266 -0.1688 -0.3081
 2805TP3     H1 8427   1.948   0.590   4.308  0.5740 -0.7556 -1.6014
 2805TP3     H2 8428   1.998   0.448   4.301 -3.9284 -2.8858  2.8578
 2806TP3      O 8429   3.257   0.217   3.827  0.7743  0.1757 -0.4742
 2806TP3     H1 8430   3.259   0.136   3.878  0.6069 -0.9414 -2.1670
 2806TP3     H2 8431   3.350   0.241   3.816  0.8324  0.0839 -0.1911
 2807TP3      O 8432   2.029   1.068   4.428  0.0615  1.0802  0.1226
 2807TP3     H1 8433   1.976   1.103   4.500 -1.5623 -0.9665  0.0266
 2807TP3     H2 8434   2.107   1.031   4.471 -1.9214 -2.1842  1.3090
 2808TP3      O 8435   3.437   0.676   4.559 -0.0295 -0.1452 -0.6759
 2808TP3     H1 8436   3.502   0.630   4.505  0.3080 -1.6053  0.8976
 2808TP3     H2 8437   3.449   0.769   4.536  2.5109 -0.3646 -0.5878
 2809TP3      O 8438   2.114   2.101   5.191 -0.2952  0.2892  0.1339
 2809TP3     H1 8439   2.196   2.148   5.205 -0.4900  0.0043  2.7588
 2809TP3     H2 8440   2.140   2.018   5.150  0.8470 -0.0839  1.5443
 2810TP3      O 8441   1.849   0.132   0.222 -0.4433 -0.2049  0.0680
 2810TP3     H1 8442   1.938   0.142   0.254  0.3976  0.3421 -2.2655
 2810TP3     H2 8443   1.795   0.182   0.284  0.8855 -0.3008  1.3398
 2811TP3      O 8444   2.181   0.555   5.404  0.0150  0.0044  0.4620
 2811TP3     H1 8445   2.205   0.590   5.318  0.2676 -1.8979 -0.2942
 2811TP3     H2 8446   2.114   0.615   5.436  1.9619  2.4246  0.2700
 2812TP3      O 8447   1.450   0.994   4.342  0.5046  0.2591  0.1265
 2812TP3     H1 8448   1.425   0.955   4.258  2.7480 -0.6708 -0.1735
 2812TP3     H2 8449   1.403   0.942   4.407 -0.4296  0.3027 -0.4942
 2813TP3      O 8450   3.706   1.041   4.599  0.0275 -0.3193 -0.0072
 2813TP3     H1 8451   3.639   1.020   4.664  0.0095 -0.7046 -0.1478
 2813TP3     H2 8452   3.789   1.018   4.640  0.0132 -0.6049 -0.1330
 2814TP3      O 8453   3.019   5.574   4.034  0.4656  0.1432  0.0947
 2814TP3     H1 8454   3.113   5.582   4.017  0.7137  0.8136  1.6331
 2814TP3     H2 8455   3.008   5.484   4.064  1.0510  0.7270  2.2118
 2815TP3      O 8456   2.494   2.108   3.450  0.5767 -0.1851  0.5567
 2815TP3     H1 8457   2.485   2.181   3.511 -0.6291  0.9580 -0.9110
 2815TP3     H2 8458   2.566   2.134   3.392  0.3991 -0.3273  0.2700
 2816TP3      O 8459   2.352   1.469   4.213 -0.0743  0.5820  0.1304
 2816TP3     H1 8460   2.420   1.439   4.151 -0.4591 -1.3288  0.5715
 2816TP3     H2 8461   2.401   1.499   4.289  0.3412 -1.7408  0.8647
 2817TP3      O 8462   3.150   1.783   4.675  0.2330  0.5023  0.4461
 2817TP3     H1 8463   3.202   1.842   4.730  0.0323 -0.2138  1.4336
 2817TP3     H2 8464   3.072   1.764   4.727  0.2698 -0.5904  0.1373
 2818TP3      O 8465   1.941   1.193   5.684  0.5956  0.2742  0.3121
 2818TP3     H1 8466   1.907   1.181   5.773  0.7323  1.6045  0.5626
 2818TP3     H2 8467   2.017   1.249   5.695  1.7124 -1.0388 -0.4718
 2819TP3      O 8468   2.978   1.816   5.169  0.0978 -0.1347  0.1729
 2819TP3     H1 8469   3.041   1.846   5.233  0.9491 -2.5113  0.5511
 2819TP3     H2 8470   2.921   1.756   5.217  0.3839 -1.5026 -1.1193
 2820TP3      O 8471   1.540   1.972   5.792  0.7110 -0.0841  0.1451
 2820TP3     H1 8472   1.617   1.979   5.735 -0.1583  2.4562 -0.8083
 2820TP3     H2 8473   1.492   1.897   5.757  0.7095  0.7968 -1.8978
 2821TP3      O 8474   3.507   0.615   4.887  0.2726 -0.1378 -0.0886
 2821TP3     H1 8475   3.453   0.629   4.809 -0.7159  0.5841  0.6921
 2821TP3     H2 8476   3.445   0.588   4.955  0.9054  0.5673  0.7962
 2822TP3      O 8477   3.201   1.304   4.414  0.3807 -0.1329 -0.0167
 2822TP3     H1 8478   3.135   1.344   4.358 -0.2063  0.8447  1.3566
 2822TP3     H2 8479   3.278   1.360   4.403  0.8898 -1.0200 -1.2691
 2823TP3      O 8480   1.765   1.181   3.826 -0.1036  0.0412 -0.1383
 2823TP3     H1 8481   1.696   1.214   3.884  1.1922 -0.0343  1.5367
 2823TP3     H2 8482   1.734   1.201   3.738 -1.0522  2.4061  0.6531
 2824TP3      O 8483   4.625   0.786   5.332  0.4556 -0.5196 -0.1877
 2824TP3     H1 8484   4.581   0.837   5.399  2.3994 -1.1977  1.7164
 2824TP3     H2 8485   4.569   0.710   5.318  0.5974 -0.9937  1.6204
 2825TP3      O 8486   3.705   1.642   4.252 -0.0707 -0.1251  0.0131
 2825TP3     H1 8487   3.778   1.580   4.238  0.0103 -0.5072  1.9238
 2825TP3     H2 8488   3.632   1.603   4.205  1.2568  1.1048 -3.4392
 2826TP3      O 8489   3.244   0.476   4.705 -0.6214 -0.3810  0.0558
 2826TP3     H1 8490   3.239   0.504   4.796  3.1634  1.6847 -0.1715
 2826TP3     H2 8491   3.299   0.542   4.662  0.1778 -2.8098 -3.0757
 2827TP3      O 8492   2.667   2.041   4.845 -0.1985  0.0808 -0.7655
 2827TP3     H1 8493   2.750   2.087   4.831  0.0241 -0.0547  0.0686
 2827TP3     H2 8494   2.644   2.007   4.758 -0.3029  1.6350 -1.3817
 2828TP3      O 8495   2.695   0.544   4.666  0.0382 -0.4377 -0.7053
 2828TP3     H1 8496   2.675   0.574   4.577 -0.9131 -1.9335 -1.0281
 2828TP3     H2 8497   2.741   0.461   4.654 -0.4009 -0.8237  0.1987
 2829TP3      O 8498   1.941   0.832   4.232 -0.2536 -0.7494 -0.1580
 2829TP3     H1 8499   1.987   0.824   4.149 -0.8424 -0.1437 -0.5528
 2829TP3     H2 8500   1.927   0.926   4.243 -0.5334 -0.8525  0.4274
 2830TP3      O 8501   4.655   1.589   4.763 -0.0042 -0.1034 -0.1668
 2830TP3     H1 8502   4.581   1.649   4.769  0.4286  0.3459  0.9271
 2830TP3     H2 8503   4.616   1.503   4.778 -0.6560 -0.1674 -1.9213
 2831TP3      O 8504   2.253   1.483   0.491 -0.2797  0.0126 -0.1614
 2831TP3     H1 8505   2.200   1.539   0.548  1.3110  0.5535  0.8835
 2831TP3     H2 8506   2.249   1.397   0.532  0.4630  0.2940  0.5643
 2832TP3      O 8507   2.530   1.346   5.093  0.0546  0.7310  0.3415
 2832TP3     H1 8508   2.525   1.442   5.096 -0.8700  0.8492 -2.4298
 2832TP3     H2 8509   2.471   1.318   5.163 -2.2019  2.2539 -0.8143
 2833TP3      O 8510   2.422   1.467   4.821  0.1526 -0.8039 -0.0684
 2833TP3     H1 8511   2.439   1.406   4.893  0.4480 -2.0667 -1.1688
 2833TP3     H2 8512   2.509   1.495   4.792  0.1368 -1.7939 -1.1460
 2834TP3      O 8513   3.181   5.945   3.674 -0.3002 -0.0138 -0.6208
 2834TP3     H1 8514   3.150   6.035   3.678  1.0383  0.5105 -1.3367
 2834TP3     H2 8515   3.255   5.948   3.613 -0.2271 -1.5941 -0.6521
 2835TP3      O 8516   2.823   5.766   4.165  0.4175  0.3233 -0.4944
 2835TP3     H1 8517   2.779   5.787   4.082 -1.8653 -0.7930  0.3559
 2835TP3     H2 8518   2.907   5.729   4.138 -0.2829 -0.0536 -2.3445
 2836TP3      O 8519   3.501   2.349   4.767 -0.3262  0.7627  0.4598
 2836TP3     H1 8520   3.586   2.339   4.809 -0.1012  0.3323 -0.0886
 2836TP3     H2 8521   3.495   2.442   4.746 -1.2768  1.4093  3.1771
 2837TP3      O 8522   2.475   0.628   5.138 -0.6562  0.6582 -0.3366
 2837TP3     H1 8523   2.464   0.722   5.149 -3.3016  0.6602 -2.2787
 2837TP3     H2 8524   2.484   0.615   5.044 -1.4883 -1.1234 -0.2183
 2838TP3      O 8525   1.409   1.617   5.299  0.0596 -0.5616  0.0635
 2838TP3     H1 8526   1.440   1.583   5.383  0.4396  1.6067  0.8634
 2838TP3     H2 8527   1.321   1.580   5.289  0.2377 -1.3169  1.1245
 2839TP3      O 8528   3.560   5.504   5.023  0.0571  0.4081 -0.1982
 2839TP3     H1 8529   3.594   5.578   4.972 -2.6842  0.6260 -1.9444
 2839TP3     H2 8530   3.494   5.465   4.965  0.0459 -2.2152  1.4647
 2840TP3      O 8531   2.717   0.346   4.917  0.9141  0.6079 -0.1558
 2840TP3     H1 8532   2.672   0.431   4.911 -0.4121  0.1315  1.9105
 2840TP3     H2 8533   2.806   0.369   4.944  0.5240  1.3780  0.5533
 2841TP3      O 8534   2.917   0.671   3.788  0.1266  0.1945 -0.1355
 2841TP3     H1 8535   2.898   0.638   3.701  0.2519 -2.1593  0.6720
 2841TP3     H2 8536   2.832   0.676   3.832  0.0181  1.7141 -0.4501
 2842TP3      O 8537   2.267   2.008   4.636  0.6017  0.2629  0.0740
 2842TP3     H1 8538   2.336   2.065   4.668  0.6433  0.6493 -0.6880
 2842TP3     H2 8539   2.237   2.048   4.554  0.3961 -0.6171 -0.3054
 2843TP3      O 8540   3.316   5.971   3.965  0.2228 -0.3157 -0.2204
 2843TP3     H1 8541   3.386   5.964   4.031 -0.1279  0.5632  0.2589
 2843TP3     H2 8542   3.336   5.902   3.901  3.5371  1.9693 -1.9677
 2844TP3      O 8543   3.259   1.528   5.222 -0.0202  0.2203  0.0666
 2844TP3     H1 8544   3.244   1.614   5.183 -0.7075 -0.5012 -1.3080
 2844TP3     H2 8545   3.347   1.503   5.194 -0.8182 -0.6560 -1.8011
 2845TP3      O 8546   3.347   0.271   4.912 -0.8497  0.1875 -0.4130
 2845TP3     H1 8547   3.334   0.181   4.883 -1.0369  0.0159  0.1784
 2845TP3     H2 8548   3.352   0.265   5.008  0.3018  0.6655 -0.4284
 2846TP3      O 8549   1.486   1.861   2.871  0.0023 -0.4163  0.2388
 2846TP3     H1 8550   1.563   1.910   2.842 -0.7522  1.4577  1.2500
 2846TP3     H2 8551   1.519   1.773   2.887  1.4991 -0.1890 -1.2786
 2847TP3      O 8552   2.422   2.227   4.326 -0.2704 -0.2898 -0.2185
 2847TP3     H1 8553   2.432   2.132   4.334  1.5237 -0.0894  0.6318
 2847TP3     H2 8554   2.378   2.254   4.406 -3.2693 -0.6182 -1.6306
 2848TP3      O 8555   2.186   5.106   0.089  0.5189  0.4128 -0.1639
 2848TP3     H1 8556   2.126   5.153   0.147 -1.7202 -1.4720 -0.7705
 2848TP3     H2 8557   2.239   5.053   0.148  0.0664  0.4658  0.3066
 2849TP3      O 8558   3.449   0.370   5.414 -0.6185  0.1042 -0.3628
 2849TP3     H1 8559   3.501   0.382   5.334 -2.8734 -0.7018 -2.0462
 2849TP3     H2 8560   3.419   0.279   5.409 -1.3712  0.2514  1.0498
 2850TP3      O 8561   2.206   1.773   0.180 -0.1656 -0.1534 -0.3739
 2850TP3     H1 8562   2.253   1.697   0.215 -0.9279 -1.1350 -1.4408
 2850TP3     H2 8563   2.273   1.823   0.133  0.0658 -0.9288 -0.8870
 2851TP3      O 8564   1.910   0.780   0.292  0.4038 -0.8498  0.3998
 2851TP3     H1 8565   1.969   0.773   0.367  1.4930 -1.3619 -0.4773
 2851TP3     H2 8566   1.967   0.774   0.216 -0.6334  0.0870 -0.4861
 2852TP3      O 8567   3.744   1.753   0.209 -0.3631 -0.2787 -0.4944
 2852TP3     H1 8568   3.670   1.693   0.195  0.6964 -1.2619 -2.4254
 2852TP3     H2 8569   3.820   1.695   0.213  0.7477  0.9025 -2.7912
 2853TP3      O 8570   2.394   1.945   0.052 -0.0644  0.3586  0.7550
 2853TP3     H1 8571   2.446   1.984  -0.018 -0.7612  0.9608  0.5622
 2853TP3     H2 8572   2.334   2.014   0.079 -1.6682 -0.7167  0.0809
 2854TP3      O 8573   4.419   1.205   5.962  0.5225 -0.1935 -0.4745
 2854TP3     H1 8574   4.335   1.246   5.981 -0.1094 -1.5672 -0.1713
 2854TP3     H2 8575   4.417   1.123   6.011  2.8187  0.5550  1.0601
 2855TP3      O 8576   3.078   1.738   0.615  0.0425  0.0090 -0.3631
 2855TP3     H1 8577   3.008   1.800   0.634 -1.2542 -1.8516  1.3232
 2855TP3     H2 8578   3.046   1.654   0.649  2.2167 -1.3561 -1.4439
 2856TP3      O 8579   3.471   1.424   5.091  0.1633  0.1823 -0.3468
 2856TP3     H1 8580   3.442   1.345   5.045  0.9488 -0.4309  0.1944
 2856TP3     H2 8581   3.535   1.393   5.155  1.8532  1.4494 -1.3326
 2857TP3      O 8582   2.316   0.856   0.022 -0.3570  0.5872 -0.1357
 2857TP3     H1 8583   2.368   0.819  -0.049  1.7253  0.8971  1.1382
 2857TP3     H2 8584   2.355   0.819   0.101 -2.4801  0.4048  0.8967
 2858TP3      O 8585   2.859   5.766   5.715 -0.2868  0.7567  0.3358
 2858TP3     H1 8586   2.766   5.755   5.697 -0.0294  0.8760 -1.1875
 2858TP3     H2 8587   2.878   5.704   5.785 -1.3897  0.3325  0.2628
 2859TP3      O 8588   1.489   0.296   0.705  0.2605  0.1445  0.4164
 2859TP3     H1 8589   1.568   0.272   0.753 -0.1310 -0.0086  0.9958
 2859TP3     H2 8590   1.521   0.342   0.627  1.0103 -1.8760 -0.5216
 2860TP3      O 8591   2.883   1.320   5.801 -0.1110 -0.2113 -0.4576
 2860TP3     H1 8592   2.894   1.401   5.751 -1.3728 -0.6204 -1.4710
 2860TP3     H2 8593   2.793   1.326   5.834 -0.0307 -0.9551 -0.1043
 2861TP3      O 8594   3.092   1.874   5.423  0.3112  0.2677  0.4751
 2861TP3     H1 8595   3.121   1.785   5.444  0.8102  0.2186 -0.3592
 2861TP3     H2 8596   3.165   1.930   5.450  1.1941  0.1592 -1.4897
 2862TP3      O 8597   2.264   1.289   0.113 -0.1876 -0.2760 -0.0208
 2862TP3     H1 8598   2.350   1.272   0.152 -0.8731 -0.4101  1.5124
 2862TP3     H2 8599   2.211   1.214   0.139 -1.0866  0.3772  0.0740
 2863TP3      O 8600   1.959   5.714   5.592 -0.2917 -0.8418  0.5552
 2863TP3     H1 8601   2.011   5.764   5.529  1.3644 -0.8970  1.7842
 2863TP3     H2 8602   1.871   5.750   5.584  0.5938  1.6134  0.6519
 2864TP3      O 8603   3.439   0.658   5.523 -0.3223 -0.0848  0.2550
 2864TP3     H1 8604   3.400   0.648   5.610  0.4870 -0.8249  0.5493
 2864TP3     H2 8605   3.431   0.571   5.483  0.7987 -0.2060  0.2482
 2865TP3      O 8606   1.370   0.009   4.843  0.4812  0.3490 -0.2746
 2865TP3     H1 8607   1.323   0.011   4.927 -1.6626  1.5275 -1.3945
 2865TP3     H2 8608   1.458   0.040   4.864 -0.0787  0.8949  1.4994
 2866TP3      O 8609   2.992   0.080   0.132 -0.4795  0.5006  0.6967
 2866TP3     H1 8610   3.022  -0.009   0.111  0.9507  1.2032 -0.4272
 2866TP3     H2 8611   2.955   0.113   0.050 -0.1184  1.2759  0.8384
 2867TP3      O 8612   3.162   1.218   5.728 -0.5094  0.5182  0.0179
 2867TP3     H1 8613   3.201   1.136   5.697  0.8948  1.9243 -2.2209
 2867TP3     H2 8614   3.094   1.238   5.663 -0.0389  1.6959 -0.1339
 2868TP3      O 8615   2.359   1.650   5.665  0.7573 -0.3705 -0.4254
 2868TP3     H1 8616   2.432   1.711   5.657 -0.3628  1.2678  1.1105
 2868TP3     H2 8617   2.283   1.701   5.637 -0.2210 -1.0237  0.9480
 2869TP3      O 8618   3.754   1.527   5.929  0.3551 -0.4295 -0.2042
 2869TP3     H1 8619   3.746   1.610   5.976  0.5583  0.6726 -2.0202
 2869TP3     H2 8620   3.665   1.491   5.928  0.4434 -0.8087  1.4872
 2870TP3      O 8621   3.727   0.225   0.250  0.0757 -0.0718  0.1736
 2870TP3     H1 8622   3.662   0.194   0.187 -0.1071 -0.1102  0.3781
 2870TP3     H2 8623   3.691   0.308   0.282 -0.2112 -0.4312  0.7943
 2871TP3      O 8624   3.199   0.568   0.206  0.0605 -0.2760 -0.2853
 2871TP3     H1 8625   3.161   0.485   0.178  0.4489 -0.5460 -0.0153
 2871TP3     H2 8626   3.253   0.545   0.282 -0.9519  0.4198  0.6952
 2872TP3      O 8627   1.980   0.957   0.059 -0.1028 -0.4760 -0.0413
 2872TP3     H1 8628   1.964   0.954   0.154 -1.4762 -0.5347 -0.2554
 2872TP3     H2 8629   1.947   1.043   0.032  0.1063 -0.5371 -0.4941
 2873TP3      O 8630   3.047   5.312   0.042 -0.7662  0.0823 -0.3557
 2873TP3     H1 8631   3.122   5.367   0.020 -0.1114 -0.4780  0.3919
 2873TP3     H2 8632   3.009   5.288  -0.043 -0.0949  0.3741 -0.7467
 2874TP3      O 8633   2.684   0.498   4.228 -0.2857 -0.2154  0.0762
 2874TP3     H1 8634   2.704   0.590   4.244  0.3068 -0.1059 -1.2012
 2874TP3     H2 8635   2.702   0.455   4.312  1.3724  0.5167  0.1333
 2875TP3      O 8636   4.248   1.680   0.304 -0.4815 -0.3231 -0.1059
 2875TP3     H1 8637   4.245   1.753   0.365 -1.8633 -1.5359  1.3741
 2875TP3     H2 8638   4.258   1.720   0.218 -1.7497  1.6155  0.6028
 2876TP3      O 8639   1.662   1.446   0.157  0.3743 -0.3263  0.1130
 2876TP3     H1 8640   1.750   1.453   0.194 -0.0135 -0.1670  1.0276
 2876TP3     H2 8641   1.624   1.369   0.199  0.8958 -1.8947 -2.0713
 2877TP3      O 8642   3.606   0.417   5.632  0.2530 -0.3479  0.0653
 2877TP3     H1 8643   3.532   0.452   5.682  0.2872 -3.8472  3.0417
 2877TP3     H2 8644   3.570   0.398   5.546 -1.5046  0.6145  0.5304
 2878TP3      O 8645   2.693   5.965   0.098  0.2706  0.3720  0.1062
 2878TP3     H1 8646   2.699   6.047   0.147 -1.1446 -0.4172  1.6935
 2878TP3     H2 8647   2.776   5.920   0.117 -0.0651  0.2847  1.4364
 2879TP3      O 8648   4.159   0.083   5.934 -0.9232  0.4489 -0.1698
 2879TP3     H1 8649   4.108   0.028   5.993 -2.4487 -2.3282 -3.6942
 2879TP3     H2 8650   4.241   0.036   5.921 -0.5202  1.1329 -0.1816
 2880TP3      O 8651   1.946   2.908   5.724 -0.5139  0.0824  0.4014
 2880TP3     H1 8652   1.986   2.994   5.713 -0.9382  0.1451 -0.7709
 2880TP3     H2 8653   1.852   2.925   5.728 -0.5498 -0.2468  1.1698
 2881TP3      O 8654   2.565   1.959   0.278  0.2432  0.3500 -0.1995
 2881TP3     H1 8655   2.507   1.933   0.206  1.2152  1.2090 -1.3441
 2881TP3     H2 8656   2.580   2.053   0.263  1.3919  0.2813  0.4429
 2882TP3      O 8657   2.569   0.990   0.345 -0.2468 -0.1709  0.2201
 2882TP3     H1 8658   2.643   1.039   0.380  0.0563 -0.9461  0.7011
 2882TP3     H2 8659   2.574   0.904   0.388 -0.9085 -0.5398 -0.3993
 2883TP3      O 8660   3.768   1.012   5.243  0.0531  0.1145  0.0429
 2883TP3     H1 8661   3.706   0.951   5.283  2.2137 -0.4778  2.7829
 2883TP3     H2 8662   3.729   1.098   5.255 -1.0800 -0.3669 -0.0375
 2884TP3      O 8663   3.119   0.303   0.491  0.4671 -0.5096  0.0426
 2884TP3     H1 8664   3.024   0.308   0.485  0.0436 -0.9492  4.0120
 2884TP3     H2 8665   3.148   0.394   0.486 -0.4159 -0.1472  1.2086
 2885TP3      O 8666   1.836   1.452   5.944 -0.0224 -0.1887 -0.0119
 2885TP3     H1 8667   1.840   1.480   5.852  1.8409  2.6230  0.7725
 2885TP3     H2 8668   1.765   1.505   5.981  1.8157  1.8053  0.9219
 2886TP3      O 8669   2.161   0.120   5.991  0.1491  0.3680  0.0939
 2886TP3     H1 8670   2.184   0.213   5.996 -1.8060  0.9039 -0.0278
 2886TP3     H2 8671   2.173   0.097   5.899  0.7740  0.4456  0.1500
 2887TP3      O 8672   1.760   0.941   0.577 -0.5343  0.3350  0.1521
 2887TP3     H1 8673   1.796   0.936   0.665 -1.2796 -0.1290  0.4418
 2887TP3     H2 8674   1.779   0.856   0.538 -0.3761  0.4695 -0.0639
 2888TP3      O 8675   3.093   1.302   6.020  0.2487 -0.3570 -0.1172
 2888TP3     H1 8676   3.046   1.383   6.002  1.0926  0.0650 -0.4736
 2888TP3     H2 8677   3.071   1.244   5.948 -1.9491 -1.1961  1.1384
 2889TP3      O 8678   3.381   0.507   5.758  0.2623 -0.0979 -0.5584
 2889TP3     H1 8679   3.376   0.497   5.853  0.0314 -2.1964 -0.7455
 2889TP3     H2 8680   3.291   0.530   5.732  0.4371  0.9991 -0.2495
 2890TP3      O 8681   2.617   1.973   5.868 -0.3982 -0.2879  0.1493
 2890TP3     H1 8682   2.675   1.999   5.940 -0.2885 -1.7504  0.6231
 2890TP3     H2 8683   2.612   1.878   5.875 -2.4206 -0.2379 -0.2496
 2891TP3      O 8684   2.579   0.583   5.383  0.3778  0.0979 -0.1629
 2891TP3     H1 8685   2.555   0.503   5.429  3.8171 -0.9674  0.0492
 2891TP3     H2 8686   2.538   0.574   5.297  1.7258 -2.6103 -0.6308
 2892TP3      O 8687   3.407   5.390   4.854 -0.1648 -0.5850  0.3307
 2892TP3     H1 8688   3.440   5.416   4.768  1.6273 -1.0102  0.8399
 2892TP3     H2 8689   3.357   5.310   4.837  0.2244 -0.7051 -0.3078
 2893TP3      O 8690   1.617   1.147   5.092  0.6554  0.5632  0.5245
 2893TP3     H1 8691   1.598   1.237   5.067 -1.3029  0.1191  0.2400
 2893TP3     H2 8692   1.564   1.132   5.170  1.4704 -0.1596  0.9600
 2894TP3      O 8693   2.088   2.649   6.023  0.4579  0.3724 -0.8054
 2894TP3     H1 8694   2.164   2.692   5.985  0.3042  0.5065 -0.9609
 2894TP3     H2 8695   2.015   2.674   5.967  0.0163  1.5467  0.2428
 2895TP3      O 8696   1.529   3.332   0.505  0.1121 -1.0755 -0.7359
 2895TP3     H1 8697   1.605   3.334   0.446  0.4171  1.2037 -0.3407
 2895TP3     H2 8698   1.455   3.357   0.449  0.0545 -0.8965 -0.5781
 2896TP3      O 8699   1.652   1.698   1.498 -0.0056 -0.1758  0.0685
 2896TP3     H1 8700   1.629   1.700   1.591 -1.2173  0.2661 -0.2198
 2896TP3     H2 8701   1.724   1.636   1.493 -1.0660 -1.5608  1.0604
 2897TP3      O 8702   2.407   2.350   0.835  0.0141  0.6628 -0.8275
 2897TP3     H1 8703   2.386   2.372   0.926  0.0251  0.0583 -0.6782
 2897TP3     H2 8704   2.392   2.256   0.828  2.1483  0.2654 -0.8501
 2898TP3      O 8705   2.760   3.460   1.221 -0.2959  0.3851  0.2159
 2898TP3     H1 8706   2.843   3.460   1.267  0.9590 -1.6487 -1.8151
 2898TP3     H2 8707   2.696   3.433   1.287  0.7610  1.1902  1.6140
 2899TP3      O 8708   3.506   4.055   0.960  0.5085  0.1687  0.2129
 2899TP3     H1 8709   3.483   3.982   0.902  0.6307 -0.4680  0.9597
 2899TP3     H2 8710   3.512   4.130   0.901  2.5047 -0.7949 -0.9469
 2900TP3      O 8711   3.059   2.304   1.337 -0.2686  0.2612  0.2162
 2900TP3     H1 8712   3.137   2.280   1.287 -1.0623  0.2578 -1.0837
 2900TP3     H2 8713   2.990   2.248   1.302 -0.5670 -0.8611  2.4311
 2901TP3      O 8714   3.247   3.240   1.229 -0.1114  0.0028  0.4298
 2901TP3     H1 8715   3.291   3.325   1.232 -0.9694  0.4961 -0.5621
 2901TP3     H2 8716   3.159   3.259   1.196  0.3986 -1.5218 -2.1104
 2902TP3      O 8717   2.909   2.968   1.665 -0.5704  0.2758  1.1043
 2902TP3     H1 8718   2.851   3.037   1.631  0.0400 -0.3061 -1.2485
 2902TP3     H2 8719   2.994   2.988   1.627 -0.7730 -2.8154 -1.3155
 2903TP3      O 8720   2.197   2.979   2.266  0.8058  0.5182 -0.0229
 2903TP3     H1 8721   2.189   2.894   2.309  0.6945  0.9944  0.9225
 2903TP3     H2 8722   2.285   3.010   2.289  0.6869  0.8451  0.0071
 2904TP3      O 8723   2.306   2.724   5.895 -0.0987  0.3024  0.0710
 2904TP3     H1 8724   2.322   2.718   5.800 -0.3409 -1.0389  0.0941
 2904TP3     H2 8725   2.394   2.724   5.934  0.0429  1.8801 -0.1686
 2905TP3      O 8726   1.870   3.233   1.175  0.1483  0.0259 -0.3022
 2905TP3     H1 8727   1.839   3.149   1.208  1.1550 -0.6608 -1.0622
 2905TP3     H2 8728   1.863   3.226   1.080 -0.1303  0.9600 -0.3634
 2906TP3      O 8729   3.700   2.993   0.447  0.2607  0.6566  0.3169
 2906TP3     H1 8730   3.715   3.087   0.435  0.8584  0.4629 -0.5550
 2906TP3     H2 8731   3.683   2.960   0.359  1.7751 -0.3232  0.3543
 2907TP3      O 8732   2.744   3.073   2.278 -0.3939 -0.3835  0.2454
 2907TP3     H1 8733   2.749   3.149   2.336 -1.4757  0.4815 -0.7465
 2907TP3     H2 8734   2.813   3.088   2.213  0.7881 -1.3293  1.2562
 2908TP3      O 8735   2.197   2.067   1.369 -0.9475 -0.2140  0.3347
 2908TP3     H1 8736   2.179   2.026   1.285 -3.2095  2.2424 -0.4940
 2908TP3     H2 8737   2.130   2.033   1.428 -1.6526  0.8007  0.1396
 2909TP3      O 8738   3.542   2.344   0.734  0.0309  0.2347 -0.1281
 2909TP3     H1 8739   3.551   2.439   0.739 -1.4358  0.3582  0.5637
 2909TP3     H2 8740   3.448   2.328   0.734  0.2518 -1.2335  0.1771
 2910TP3      O 8741   0.866   3.044   0.744 -0.1616  0.0761  0.1267
 2910TP3     H1 8742   0.905   2.966   0.785  0.9488  0.0665 -0.8770
 2910TP3     H2 8743   0.868   3.024   0.650 -2.9749 -0.0589  0.0088
 2911TP3      O 8744   3.163   3.444   1.514  0.5509  0.2515  0.0710
 2911TP3     H1 8745   3.237   3.427   1.455  2.0746  3.9535  0.5807
 2911TP3     H2 8746   3.199   3.502   1.581 -2.5793  1.4205  0.9328
 2912TP3      O 8747   1.483   2.677   5.627 -0.2794  0.1145  0.1530
 2912TP3     H1 8748   1.435   2.598   5.653 -0.0277 -0.4007 -0.8991
 2912TP3     H2 8749   1.506   2.720   5.710 -0.6048 -0.8015  0.7287
 2913TP3      O 8750   3.056   3.340   0.946 -0.3991  0.3705  0.1196
 2913TP3     H1 8751   3.057   3.383   1.031  2.2959  0.7398 -0.0288
 2913TP3     H2 8752   2.967   3.354   0.914 -0.5520  3.0918  1.4220
 2914TP3      O 8753   2.422   3.280   0.650 -0.6901 -0.1970  0.0426
 2914TP3     H1 8754   2.407   3.357   0.595  1.8781  1.3248  1.2380
 2914TP3     H2 8755   2.515   3.261   0.639 -0.4132 -0.7461  2.6351
 2915TP3      O 8756   2.289   3.020   0.105 -0.2733 -0.5296  0.1396
 2915TP3     H1 8757   2.309   2.983   0.020  2.1541 -0.6727  0.7231
 2915TP3     H2 8758   2.199   2.992   0.122 -0.0729 -2.3095 -1.4136
 2916TP3      O 8759   3.150   1.718   1.452  0.3651 -0.6372  0.7977
 2916TP3     H1 8760   3.109   1.773   1.385  1.3792  1.3539  1.7191
 2916TP3     H2 8761   3.077   1.673   1.494 -0.2876 -1.9498 -1.5877
 2917TP3      O 8762   2.313   2.618   0.209  0.9166 -0.2365  0.5200
 2917TP3     H1 8763   2.227   2.608   0.167  1.0497  2.0368 -0.4291
 2917TP3     H2 8764   2.301   2.579   0.296 -0.2736 -2.2744 -0.4691
 2918TP3      O 8765   3.290   4.040   1.656  0.3696  0.3259 -0.2399
 2918TP3     H1 8766   3.235   4.094   1.713  0.2340  0.7740 -0.7795
 2918TP3     H2 8767   3.380   4.063   1.681  0.3314 -0.6269  0.8478
 2919TP3      O 8768   1.390   2.246   5.377  0.6291 -0.1306  0.1854
 2919TP3     H1 8769   1.382   2.153   5.395 -0.0247 -0.0340  0.4263
 2919TP3     H2 8770   1.418   2.251   5.285 -1.5774 -0.5437 -0.5701
 2920TP3      O 8771   4.032   2.154   1.022  0.4778  0.1258 -0.0762
 2920TP3     H1 8772   3.946   2.112   1.014  1.1951 -1.6078  0.8352
 2920TP3     H2 8773   4.040   2.206   0.942 -0.3913 -1.6269 -1.3932
 2921TP3      O 8774   2.949   1.846   5.679 -0.2808 -0.3540  0.6530
 2921TP3     H1 8775   2.913   1.921   5.632 -1.5531 -0.6496  1.1309
 2921TP3     H2 8776   3.027   1.822   5.628 -0.6490  0.3997 -0.3104
 2922TP3      O 8777   1.866   3.123   1.729  0.1449  0.3742 -0.5100
 2922TP3     H1 8778   1.815   3.131   1.649  1.4970 -1.1440 -1.5816
 2922TP3     H2 8779   1.901   3.034   1.727  0.9413  0.5923  1.3227
 2923TP3      O 8780   2.234   2.917   1.058 -0.5507 -0.1956 -0.0649
 2923TP3     H1 8781   2.257   2.825   1.074  0.5239  0.1575  0.4606
 2923TP3     H2 8782   2.271   2.936   0.972 -2.1797 -0.6974 -0.9267
 2924TP3      O 8783   3.040   3.479   1.183  0.4654 -0.4188 -0.5419
 2924TP3     H1 8784   3.023   3.572   1.198  0.5430 -0.3484 -0.8732
 2924TP3     H2 8785   3.106   3.456   1.248  0.8127 -0.1179 -0.7851
 2925TP3      O 8786   2.470   2.345   5.920  0.2133 -0.0907 -0.3740
 2925TP3     H1 8787   2.531   2.318   5.852  0.4285  1.0136 -0.6386
 2925TP3     H2 8788   2.410   2.271   5.930 -0.1168 -0.0897 -2.0969
 2926TP3      O 8789   1.978   3.458   1.299  0.4815  0.3500  0.3225
 2926TP3     H1 8790   1.960   3.509   1.220 -0.6046  0.9536  0.9281
 2926TP3     H2 8791   1.953   3.368   1.276 -1.5699  0.8159  0.4833
 2927TP3      O 8792   2.660   3.184   0.545  0.2891 -0.1639 -0.1573
 2927TP3     H1 8793   2.726   3.229   0.491  1.5741 -1.7269  0.0424
 2927TP3     H2 8794   2.706   3.162   0.626 -0.6976 -0.6606  0.2884
 2928TP3      O 8795   2.949   3.377   1.656  0.0526  0.2783 -0.3487
 2928TP3     H1 8796   2.926   3.450   1.714 -0.7530  0.2245 -0.5832
 2928TP3     H2 8797   3.033   3.401   1.617  0.0645  0.8143  0.0056
 2929TP3      O 8798   2.294   1.136   1.774 -0.1138 -0.5093  0.2207
 2929TP3     H1 8799   2.278   1.160   1.865 -2.3766 -0.7381 -0.0464
 2929TP3     H2 8800   2.337   1.051   1.778  0.6019 -0.1165  1.0709
 2930TP3      O 8801   3.956   2.861   0.791 -0.2973  0.1309  0.4442
 2930TP3     H1 8802   4.041   2.836   0.755  0.8827  1.4659  2.1379
 2930TP3     H2 8803   3.898   2.789   0.767  0.3096  0.7762 -3.9476
 2931TP3      O 8804   2.605   2.504   0.709 -0.4325  0.1687 -1.3434
 2931TP3     H1 8805   2.672   2.441   0.735 -1.0909  0.1755  0.5214
 2931TP3     H2 8806   2.523   2.463   0.734 -0.9083  1.5748 -0.5148
 2932TP3      O 8807   2.736   1.606   0.878  0.1075  0.1981 -0.2882
 2932TP3     H1 8808   2.728   1.599   0.974  1.2563 -0.2927 -0.2062
 2932TP3     H2 8809   2.751   1.700   0.863 -1.2133  0.4573 -0.1050
 2933TP3      O 8810   2.823   2.188   0.494 -0.8419 -0.3491 -1.1089
 2933TP3     H1 8811   2.775   2.183   0.411 -1.0216  0.5482 -1.0630
 2933TP3     H2 8812   2.755   2.196   0.561 -0.6413  1.2848 -1.0713
 2934TP3      O 8813   3.156   2.596   0.802  0.3527 -0.2306  0.1129
 2934TP3     H1 8814   3.060   2.593   0.796  0.3324 -2.0367  0.5254
 2934TP3     H2 8815   3.185   2.611   0.712 -0.3141 -1.1292 -0.2713
 2935TP3      O 8816   2.497   2.710   2.246  0.1260 -0.2320 -0.1575
 2935TP3     H1 8817   2.590   2.710   2.220 -0.5085  1.4734 -2.9194
 2935TP3     H2 8818   2.479   2.801   2.269 -0.2191 -1.0802  3.6043
 2936TP3      O 8819   3.532   2.724   2.310 -0.0595  0.6229 -0.2942
 2936TP3     H1 8820   3.464   2.749   2.247 -0.6353 -0.3723 -0.0810
 2936TP3     H2 8821   3.515   2.632   2.329  0.3131  0.8213  1.0811
 2937TP3      O 8822   3.066   2.679   1.549  0.1202  0.3350 -0.2000
 2937TP3     H1 8823   3.105   2.628   1.478  0.7692 -0.6175  0.7986
 2937TP3     H2 8824   2.986   2.716   1.512  0.1222 -0.6578 -1.2437
 2938TP3      O 8825   3.013   2.006   1.683  0.9671  0.4916 -0.4310
 2938TP3     H1 8826   2.959   1.983   1.758  2.0104  0.3414  0.2928
 2938TP3     H2 8827   3.087   1.946   1.688  1.1269  0.5817 -1.5027
 2939TP3      O 8828   2.058   2.163   0.751  0.0023 -0.6260  0.0661
 2939TP3     H1 8829   2.001   2.157   0.675  0.5347  1.3184 -0.5409
 2939TP3     H2 8830   2.146   2.144   0.717 -0.0191 -1.9972  0.6793
 2940TP3      O 8831   2.604   1.973   1.804 -0.4977 -0.4668 -0.1812
 2940TP3     H1 8832   2.533   2.018   1.850 -0.0632  0.1168 -0.0799
 2940TP3     H2 8833   2.585   1.986   1.711  0.2410  0.8946 -0.1495
 2941TP3      O 8834   2.313   4.263   1.812  0.5124  0.2906 -0.2194
 2941TP3     H1 8835   2.358   4.343   1.785  0.8663 -0.2218 -1.1819
 2941TP3     H2 8836   2.322   4.203   1.737  1.2724 -1.0763  0.9193
 2942TP3      O 8837   2.809   2.213   5.729 -0.1865 -0.6227  0.2894
 2942TP3     H1 8838   2.722   2.175   5.731 -1.4804  2.0651  0.3180
 2942TP3     H2 8839   2.800   2.292   5.675  1.6459  0.9570  2.0771
 2943TP3      O 8840   4.062   2.762   1.799 -0.7340 -0.0355  0.1826
 2943TP3     H1 8841   4.119   2.839   1.806  0.2182 -0.6243 -0.7866
 2943TP3     H2 8842   4.090   2.705   1.871  1.6980 -1.4104 -1.6888
 2944TP3      O 8843   2.581   2.930   0.556  0.6277 -0.1600  0.3244
 2944TP3     H1 8844   2.580   3.024   0.537 -0.2643  0.4587  3.0203
 2944TP3     H2 8845   2.518   2.892   0.494  1.5919  0.8395 -1.3440
 2945TP3      O 8846   2.638   1.924   0.627 -0.3710  0.5621 -0.3741
 2945TP3     H1 8847   2.643   2.013   0.663  1.1268 -1.0129  3.8392
 2945TP3     H2 8848   2.547   1.897   0.643 -0.1867  0.5057  0.6017
 2946TP3      O 8849   2.711   3.192   0.870 -0.4344 -0.4684 -0.2216
 2946TP3     H1 8850   2.666   3.140   0.937 -1.5047 -0.5197 -0.9520
 2946TP3     H2 8851   2.690   3.283   0.892  0.6889 -0.3633  0.5244
 2947TP3      O 8852   2.810   3.779   0.658  0.2881 -0.6429  0.1510
 2947TP3     H1 8853   2.771   3.723   0.725  0.1720  0.5699  1.1386
 2947TP3     H2 8854   2.773   3.747   0.576 -0.5600 -1.3540  0.7796
 2948TP3      O 8855   3.450   2.818   1.154  0.0851 -0.2062  0.3085
 2948TP3     H1 8856   3.390   2.758   1.111 -1.3635  1.3223  0.1103
 2948TP3     H2 8857   3.525   2.823   1.095  0.4008 -2.0132  0.4856
 2949TP3      O 8858   3.323   4.015   1.147  0.2101 -0.5755  0.1352
 2949TP3     H1 8859   3.249   4.048   1.096  0.5537  0.0995  0.0620
 2949TP3     H2 8860   3.397   4.018   1.087  0.4125 -0.7160  0.3775
 2950TP3      O 8861   2.619   2.619   1.178 -0.4944  0.5938  0.3457
 2950TP3     H1 8862   2.616   2.559   1.103 -0.9570 -0.9896  1.5870
 2950TP3     H2 8863   2.622   2.706   1.138 -0.5144 -0.2045 -1.5137
 2951TP3      O 8864   2.993   2.441   2.122 -0.1527  0.5281 -0.1787
 2951TP3     H1 8865   3.071   2.495   2.132 -0.3180  0.6887  0.2661
 2951TP3     H2 8866   2.970   2.448   2.029 -0.5213  1.7010 -0.0133
 2952TP3      O 8867   2.121   1.974   2.055 -0.2080 -0.2577 -0.5150
 2952TP3     H1 8868   2.133   1.910   2.126 -0.3507 -0.6791 -0.8653
 2952TP3     H2 8869   2.049   2.030   2.085 -0.1189 -0.2959 -0.2278
 2953TP3      O 8870   2.830   4.297   0.463 -0.1603  0.4273 -0.7289
 2953TP3     H1 8871   2.795   4.313   0.551  0.7892 -0.5930 -0.1270
 2953TP3     H2 8872   2.843   4.202   0.460 -1.6145  0.2389 -2.5572
 2954TP3      O 8873   2.129   1.961   1.782 -0.1753  0.5866 -0.1514
 2954TP3     H1 8874   2.135   1.966   1.878  0.4516 -1.3998 -0.0322
 2954TP3     H2 8875   2.175   1.880   1.760 -0.7656  0.7355 -2.1037
 2955TP3      O 8876   3.425   3.556   0.358  0.0672  0.3605 -0.0234
 2955TP3     H1 8877   3.378   3.633   0.390 -1.5365  1.0967 -3.6978
 2955TP3     H2 8878   3.504   3.591   0.317 -0.6055  0.0940 -1.6009
 2956TP3      O 8879   2.130   3.233   5.824  0.4558  1.0510 -0.1477
 2956TP3     H1 8880   2.165   3.308   5.776 -0.2303  1.2895 -0.2922
 2956TP3     H2 8881   2.086   3.180   5.756 -0.0430  1.1062  0.1269
 2957TP3      O 8882   3.160   2.058   0.754  0.2157  0.3819 -0.4734
 2957TP3     H1 8883   3.186   2.016   0.671  3.3577 -0.5823  0.8577
 2957TP3     H2 8884   3.071   2.026   0.769  0.2613 -0.9680 -2.5273
 2958TP3      O 8885   3.008   4.012   1.529  0.4576 -0.0794  0.3855
 2958TP3     H1 8886   2.978   4.081   1.588  2.6468  0.5338  0.8781
 2958TP3     H2 8887   3.056   4.059   1.460  1.9019 -1.0764  0.6728
 2959TP3      O 8888   3.034   3.724   1.325  0.3165 -0.6763  0.0747
 2959TP3     H1 8889   2.943   3.713   1.353  0.6502 -1.6584  0.8340
 2959TP3     H2 8890   3.079   3.756   1.403  0.5761  0.0328 -0.3667
 2960TP3      O 8891   2.001   3.185   0.847 -0.1060 -0.2112 -0.0231
 2960TP3     H1 8892   1.941   3.129   0.895 -3.1369  0.8939 -2.2394
 2960TP3     H2 8893   1.947   3.229   0.782  2.8965  1.9548 -1.3130
 2961TP3      O 8894   3.184   1.807   1.715 -0.5177  0.4385 -0.0118
 2961TP3     H1 8895   3.191   1.756   1.635 -1.1762  0.7026 -0.2459
 2961TP3     H2 8896   3.171   1.742   1.784  0.6434  0.1715 -0.0259
 2962TP3      O 8897   2.214   2.040   5.554  0.1448  0.3938  0.4356
 2962TP3     H1 8898   2.260   1.965   5.517 -2.5954 -0.5504 -1.3398
 2962TP3     H2 8899   2.238   2.113   5.497  3.0482  1.1331  2.3337
 2963TP3      O 8900   2.777   2.222   1.559  0.1674  0.1935 -0.1466
 2963TP3     H1 8901   2.764   2.316   1.567  0.8434  0.2669  0.1720
 2963TP3     H2 8902   2.740   2.186   1.639  1.1872  0.3296  0.4006
 2964TP3      O 8903   1.708   2.774   0.737 -0.3136 -0.1887  0.2184
 2964TP3     H1 8904   1.727   2.836   0.666  0.8197 -0.0228  0.6429
 2964TP3     H2 8905   1.628   2.729   0.709 -0.0754  0.1108 -1.0026
 2965TP3      O 8906   2.454   1.996   1.000 -0.3021  0.8435  0.6971
 2965TP3     H1 8907   2.442   2.069   1.061  1.4449 -0.3269  2.5819
 2965TP3     H2 8908   2.416   1.921   1.046  0.0850  0.1207 -0.1450
 2966TP3      O 8909   3.208   3.829   0.947 -0.4035  0.5405 -0.5155
 2966TP3     H1 8910   3.266   3.810   1.021 -2.2051  2.3222  1.5035
 2966TP3     H2 8911   3.158   3.748   0.934 -0.0000  0.1728  0.1620
 2967TP3      O 8912   3.314   2.131   1.208  0.1759  0.3299  0.5174
 2967TP3     H1 8913   3.318   2.072   1.283 -1.1836  0.2356  0.5313
 2967TP3     H2 8914   3.277   2.079   1.138  0.9796  0.5650 -0.0989
 2968TP3      O 8915   2.845   2.146   1.280 -0.1056  0.0117  0.7212
 2968TP3     H1 8916   2.822   2.137   1.372 -1.4306  2.6131  0.7389
 2968TP3     H2 8917   2.771   2.109   1.232  0.3934 -0.9559  0.6756
 2969TP3      O 8918   3.353   3.284   0.279 -0.0374 -0.2105  0.3654
 2969TP3     H1 8919   3.374   3.372   0.311  0.0515 -0.6099  1.4356
 2969TP3     H2 8920   3.331   3.235   0.358 -0.2147 -1.1170 -0.2417
 2970TP3      O 8921   2.259   2.379   0.419  0.0903  0.1859 -0.1123
 2970TP3     H1 8922   2.353   2.369   0.407  0.2786  1.7017 -0.1519
 2970TP3     H2 8923   2.227   2.290   0.434  1.4405 -0.4210 -0.6354
 2971TP3      O 8924   2.965   2.460   1.842  0.2478 -0.4630  0.1910
 2971TP3     H1 8925   3.009   2.543   1.824  0.4121 -0.7024 -0.5097
 2971TP3     H2 8926   3.012   2.395   1.791 -0.0914 -0.9395  0.4719
 2972TP3      O 8927   3.359   3.490   1.269 -0.5183 -0.4273  0.1937
 2972TP3     H1 8928   3.451   3.474   1.286 -0.7546 -1.1239  0.8713
 2972TP3     H2 8929   3.354   3.583   1.246 -0.0024  0.3101  2.7985
 2973TP3      O 8930   2.156   3.174   1.118  0.3392 -0.3552  0.2937
 2973TP3     H1 8931   2.062   3.177   1.132  0.3714  1.7332  0.2855
 2973TP3     H2 8932   2.173   3.084   1.090 -2.0834 -0.0558 -2.6261
 2974TP3      O 8933   2.824   4.037   0.835  1.0987  0.3710 -0.2790
 2974TP3     H1 8934   2.877   4.015   0.758  1.1445  0.1678 -0.1913
 2974TP3     H2 8935   2.734   4.044   0.801  1.3864  2.2888 -0.7152
 2975TP3      O 8936   2.827   2.344   6.003  0.0602  0.0256  0.3423
 2975TP3     H1 8937   2.817   2.330   5.908 -2.0427  0.1249  0.4976
 2975TP3     H2 8938   2.852   2.436   6.010  0.9211 -0.1583 -0.1242
 2976TP3      O 8939   2.084   1.543   1.927  0.1586  0.2271 -0.1386
 2976TP3     H1 8940   2.151   1.551   1.859 -1.4207  0.3248 -1.7590
 2976TP3     H2 8941   2.012   1.497   1.884 -1.9322  2.5455  0.6651
 2977TP3      O 8942   2.256   1.524   1.682 -0.0725  0.4361 -0.5498
 2977TP3     H1 8943   2.181   1.472   1.652  0.1167 -0.9171  1.1585
 2977TP3     H2 8944   2.331   1.467   1.669  0.4078  1.0324 -0.4099
 2978TP3      O 8945   3.462   1.533   1.005 -0.4011  0.0344  0.6688
 2978TP3     H1 8946   3.467   1.589   1.083  1.4161  0.4816  0.2724
 2978TP3     H2 8947   3.414   1.586   0.941 -0.4364  0.3356  0.9407
 2979TP3      O 8948   2.990   0.725   0.131 -0.1022  0.1267 -0.1891
 2979TP3     H1 8949   3.063   0.669   0.158 -0.3511 -0.1576 -0.1067
 2979TP3     H2 8950   2.913   0.668   0.134  0.0753 -0.3953 -3.0669
 2980TP3      O 8951   3.789   2.989   1.079  0.2816 -0.7158  0.2243
 2980TP3     H1 8952   3.853   3.061   1.072  1.3813 -1.6389  0.4218
 2980TP3     H2 8953   3.783   2.972   1.173 -0.8775 -0.1265  0.2759
 2981TP3      O 8954   3.588   2.625   1.358  0.5700  0.2145 -0.3049
 2981TP3     H1 8955   3.552   2.710   1.334  0.2140 -0.0312 -0.6453
 2981TP3     H2 8956   3.537   2.562   1.308 -1.2953 -0.4468  2.2032
 2982TP3      O 8957   3.969   3.332   0.741 -0.2141 -0.4059  0.5401
 2982TP3     H1 8958   3.956   3.272   0.815  0.9812  1.7457  2.6096
 2982TP3     H2 8959   3.924   3.412   0.767  0.9766  0.6973 -0.6681
 2983TP3      O 8960   2.026   3.320   0.070  0.1469  0.7757  0.1016
 2983TP3     H1 8961   2.075   3.270   0.005 -0.6189 -0.8268  0.7068
 2983TP3     H2 8962   1.980   3.387   0.019  0.5711  0.3761 -0.8272
 2984TP3      O 8963   3.067   2.799   1.264  0.2064 -0.3819 -0.1969
 2984TP3     H1 8964   3.050   2.714   1.224 -0.3055  0.0349 -0.8956
 2984TP3     H2 8965   3.078   2.858   1.189 -0.3647  0.3406  0.2791
 2985TP3      O 8966   3.800   1.191   5.875  0.1049 -0.0541  0.0890
 2985TP3     H1 8967   3.724   1.245   5.897 -0.8911 -1.7369  1.0601
 2985TP3     H2 8968   3.873   1.230   5.923 -0.6860  0.1787  1.1485
 2986TP3      O 8969   3.077   2.191   5.720  0.2451  0.0017 -0.1243
 2986TP3     H1 8970   2.991   2.232   5.729 -0.6511 -1.6288 -0.8447
 2986TP3     H2 8971   3.084   2.135   5.798  0.4061 -0.2848 -0.3444
 2987TP3      O 8972   3.750   3.598   2.180 -0.2905  0.1159  0.1659
 2987TP3     H1 8973   3.761   3.505   2.161 -2.0504  0.1231 -1.0677
 2987TP3     H2 8974   3.759   3.641   2.095  2.9557  1.4183  1.0051
 2988TP3      O 8975   2.829   3.059   1.202  0.2593  0.8262  0.0384
 2988TP3     H1 8976   2.891   3.097   1.139  1.0746  0.8328  0.8274
 2988TP3     H2 8977   2.841   3.110   1.282  1.1080 -0.8040  1.0116
 2989TP3      O 8978   4.053   2.921   2.168  0.3139  0.2187  0.0658
 2989TP3     H1 8979   3.979   2.865   2.190  0.5421  0.1043  0.5601
 2989TP3     H2 8980   4.118   2.863   2.130  0.1519  0.3186 -0.3648
 2990TP3      O 8981   3.097   2.954   0.961  0.4456  0.5579  0.2845
 2990TP3     H1 8982   3.105   3.044   0.929  0.6875  0.9549  1.3891
 2990TP3     H2 8983   3.010   2.925   0.932  0.6281  0.9065 -0.6381
 2991TP3      O 8984   4.145   3.027   1.227 -0.5812  0.3422 -0.6321
 2991TP3     H1 8985   4.167   2.949   1.175  0.3093  0.8073 -0.9677
 2991TP3     H2 8986   4.228   3.072   1.239 -1.3004  2.1086 -1.8504
 2992TP3      O 8987   2.413   2.371   1.107 -0.3333  0.4696 -0.3072
 2992TP3     H1 8988   2.459   2.308   1.164  0.1325 -0.1588 -1.3455
 2992TP3     H2 8989   2.398   2.447   1.163  0.7291  0.1402  0.4605
 2993TP3      O 8990   2.583   3.355   1.441  0.2639 -0.4431 -0.3067
 2993TP3     H1 8991   2.546   3.404   1.515 -0.4119 -0.8929 -0.3377
 2993TP3     H2 8992   2.516   3.361   1.373 -0.7723 -3.0870  0.3753
 2994TP3      O 8993   2.733   2.534   0.269 -0.9083  0.0103  0.3876
 2994TP3     H1 8994   2.788   2.610   0.285  0.7844 -1.2090  0.6980
 2994TP3     H2 8995   2.667   2.564   0.207  0.6618  1.3266 -0.7225
 2995TP3      O 8996   2.484   2.504   1.662  0.0990 -0.2208 -0.4279
 2995TP3     H1 8997   2.402   2.535   1.624  0.8315  0.0895 -1.8497
 2995TP3     H2 8998   2.489   2.548   1.747 -0.3457  1.1978 -1.0925
 2996TP3      O 8999   3.444   1.848   2.313  0.4744  0.5724 -0.5035
 2996TP3     H1 9000   3.476   1.895   2.391  0.0544 -1.8835  1.2712
 2996TP3     H2 9001   3.511   1.781   2.297 -0.7475 -0.6663 -0.5664
 2997TP3      O 9002   1.738   4.069   1.656 -0.4685  0.1669  0.3514
 2997TP3     H1 9003   1.762   4.150   1.612 -3.0255  0.9851  0.3255
 2997TP3     H2 9004   1.688   4.096   1.733 -1.5724 -1.3606  0.2280
 2998TP3      O 9005   2.787   3.732   0.386  0.8842  0.8188  0.4728
 2998TP3     H1 9006   2.766   3.813   0.341 -1.2754 -0.1975 -0.4711
 2998TP3     H2 9007   2.871   3.704   0.348  0.5462  1.4674 -0.7978
 2999TP3      O 9008   3.007   2.223   0.963  0.8312  0.2484  0.3100
 2999TP3     H1 9009   3.069   2.295   0.958  0.9845  0.0506 -1.6354
 2999TP3     H2 9010   3.060   2.144   0.954  0.3934  0.0468 -0.6382
 3000TP3      O 9011   3.120   3.271   0.594 -0.0312  0.3293 -0.9412
 3000TP3     H1 9012   3.179   3.199   0.568 -1.2188 -1.5917  1.3279
 3000TP3     H2 9013   3.036   3.229   0.609  0.0228  1.4018  3.9331
 3001TP3      O 9014   3.184   3.546   0.653  0.8945 -0.0965 -0.6917
 3001TP3     H1 9015   3.148   3.459   0.636  0.3039  0.0862 -0.3847
 3001TP3     H2 9016   3.122   3.587   0.713  1.9316  0.0034  0.3413
 3002TP3      O 9017   3.669   2.729   0.036 -0.1376  0.6655  0.0557
 3002TP3     H1 9018   3.764   2.735   0.027  0.1585 -2.8286 -0.9735
 3002TP3     H2 9019   3.636   2.736  -0.054 -0.7522  0.8314  0.2868
 3003TP3      O 9020   2.527   3.204   1.093  0.5663  0.3756  0.5762
 3003TP3     H1 9021   2.513   3.240   1.181  0.1291 -0.0968  0.7028
 3003TP3     H2 9022   2.463   3.250   1.039 -0.0916 -0.3044  0.7653
 3004TP3      O 9023   2.827   1.946   1.480 -0.0069 -0.1836  0.3811
 3004TP3     H1 9024   2.905   1.921   1.430  0.0911 -0.1650  0.5252
 3004TP3     H2 9025   2.859   2.002   1.549  0.1152 -1.6814  1.5993
 3005TP3      O 9026   3.364   2.829   2.084 -0.8373  0.4285 -0.3590
 3005TP3     H1 9027   3.417   2.859   2.009 -1.7270 -1.2503 -1.7148
 3005TP3     H2 9028   3.313   2.906   2.109  2.3237  2.2331  1.2032
 3006TP3      O 9029   3.331   2.214   1.586 -0.1951  0.0476  0.0512
 3006TP3     H1 9030   3.377   2.264   1.519 -0.0975  0.2431  0.2639
 3006TP3     H2 9031   3.238   2.234   1.572 -0.3016 -1.0216 -0.9325
 3007TP3      O 9032   2.531   2.273   2.107  0.1138  0.0348 -0.8462
 3007TP3     H1 9033   2.615   2.317   2.119  0.1947 -0.2281 -0.4066
 3007TP3     H2 9034   2.554   2.182   2.092 -0.0231  0.2517 -2.4885
 3008TP3      O 9035   2.521   1.748   1.336  0.0926  0.8134 -0.2809
 3008TP3     H1 9036   2.516   1.682   1.405 -0.8924 -0.3244 -1.3901
 3008TP3     H2 9037   2.430   1.764   1.312  0.3683  2.0115 -0.5747
 3009TP3      O 9038   3.011   3.185   1.831  0.1885 -0.2022 -0.2413
 3009TP3     H1 9039   2.985   3.259   1.776  0.1096 -0.2822 -0.3131
 3009TP3     H2 9040   3.090   3.214   1.877  0.4586 -0.2648 -0.6661
 3010TP3      O 9041   2.802   2.692   5.812  0.4544  0.1457  0.2210
 3010TP3     H1 9042   2.807   2.749   5.889 -0.4330 -0.5343  0.8077
 3010TP3     H2 9043   2.710   2.690   5.789  0.2086 -2.1003  1.0754
 3011TP3      O 9044   2.373   1.435   1.073  0.6848 -0.0329  0.1573
 3011TP3     H1 9045   2.292   1.402   1.034 -0.4617  2.0121  0.7211
 3011TP3     H2 9046   2.439   1.372   1.044 -0.9708 -1.4367 -0.8129
 3012TP3      O 9047   2.261   3.313   1.337  0.1529  0.5154  0.7056
 3012TP3     H1 9048   2.246   3.236   1.392  3.4511 -0.7752  0.0035
 3012TP3     H2 9049   2.212   3.295   1.257  0.6332 -0.7601  0.6684
 3013TP3      O 9050   2.422   2.248   1.425  0.4766 -0.0381  0.5735
 3013TP3     H1 9051   2.381   2.334   1.433  1.2566  0.4547 -0.4479
 3013TP3     H2 9052   2.348   2.188   1.410 -0.1853  0.2326  2.5029
 3014TP3      O 9053   4.160   2.376   1.947  0.5633  0.0526  0.4537
 3014TP3     H1 9054   4.185   2.304   1.889  1.0608 -0.1730  0.9443
 3014TP3     H2 9055   4.164   2.340   2.035  4.8436  1.6156  1.1574
 3015TP3      O 9056   1.874   1.813   0.338 -0.0393 -0.4703 -0.2593
 3015TP3     H1 9057   1.912   1.893   0.301 -1.2579  1.0743  1.5959
 3015TP3     H2 9058   1.946   1.770   0.383  0.1799  0.8282  0.6739
 3016TP3      O 9059   3.700   2.129   0.660  0.2528 -0.1878  0.3669
 3016TP3     H1 9060   3.647   2.208   0.665  0.0117 -0.4050  1.6592
 3016TP3     H2 9061   3.773   2.145   0.720  0.9598 -0.4113 -0.4038
 3017TP3      O 9062   2.588   2.814   1.451  0.0877 -0.3416  0.4114
 3017TP3     H1 9063   2.594   2.856   1.537 -0.4199 -0.7851  0.6711
 3017TP3     H2 9064   2.670   2.765   1.444  1.5303  2.0235 -0.6551
 3018TP3      O 9065   3.250   3.545   1.741  0.2037  0.2391  0.1526
 3018TP3     H1 9066   3.236   3.484   1.814  0.9155 -1.7816 -1.2864
 3018TP3     H2 9067   3.244   3.632   1.780  1.6362 -0.7423  2.8386
 3019TP3      O 9068   3.130   2.727   1.795  0.2159 -0.0393  0.3675
 3019TP3     H1 9069   3.110   2.721   1.701  1.4074  0.1327  0.0923
 3019TP3     H2 9070   3.216   2.687   1.804  0.0428 -0.1975  1.4209
 3020TP3      O 9071   1.308   3.618   2.618  0.1972  0.0640 -0.0492
 3020TP3     H1 9072   1.399   3.623   2.587  0.5891 -1.9085  0.6604
 3020TP3     H2 9073   1.293   3.703   2.661  1.1383  1.0535 -1.5635
 3021TP3      O 9074   3.172   2.372   5.517 -0.3044 -0.8856 -0.2688
 3021TP3     H1 9075   3.156   2.297   5.575 -1.1911 -0.1183  0.5208
 3021TP3     H2 9076   3.119   2.355   5.440 -0.8532 -0.8723  0.0978
 3022TP3      O 9077   3.380   2.185   0.254  0.3237  0.2322 -0.4786
 3022TP3     H1 9078   3.406   2.106   0.206 -1.2931  0.3980 -1.6912
 3022TP3     H2 9079   3.463   2.220   0.288  1.2575 -1.0756 -1.3133
 3023TP3      O 9080   2.213   3.484   0.551  0.4415  0.6135 -0.2775
 3023TP3     H1 9081   2.167   3.438   0.481 -0.4497 -0.6686  1.0918
 3023TP3     H2 9082   2.147   3.543   0.588  0.1016 -0.5899  1.1231
 3024TP3      O 9083   2.289   3.632   1.428  0.0069  0.1167  0.2206
 3024TP3     H1 9084   2.211   3.687   1.429 -0.2702 -0.2545 -0.3540
 3024TP3     H2 9085   2.258   3.548   1.393  0.7899  0.1636 -0.5977
 3025TP3      O 9086   2.367   2.951   1.343  0.4890 -0.2880  0.0786
 3025TP3     H1 9087   2.376   2.975   1.251  1.7146  0.6985  0.4269
 3025TP3     H2 9088   2.453   2.918   1.368  0.2009 -0.4355  0.8897
 3026TP3      O 9089   2.992   2.578   1.163  0.0353 -0.3541 -0.2324
 3026TP3     H1 9090   2.943   2.500   1.189  0.4242 -0.3275  0.6296
 3026TP3     H2 9091   3.084   2.550   1.164  0.3086  0.4749  1.5392
 3027TP3      O 9092   3.197   1.955   1.007 -0.0022  0.6793 -0.1813
 3027TP3     H1 9093   3.252   1.876   1.007  1.2515  1.3599  3.2370
 3027TP3     H2 9094   3.207   1.992   0.920 -0.0676 -2.5020 -1.6795
 3028TP3      O 9095   1.620   4.196   1.219  0.1753  1.1201  0.2686
 3028TP3     H1 9096   1.568   4.210   1.298 -0.3354 -1.2854  0.4324
 3028TP3     H2 9097   1.711   4.196   1.249 -0.0635 -1.1585  1.1829
 3029TP3      O 9098   2.546   3.535   0.487  0.3813 -0.0769  0.5294
 3029TP3     H1 9099   2.614   3.556   0.423 -0.4655 -1.7434 -1.0021
 3029TP3     H2 9100   2.476   3.495   0.435 -1.5940  1.1580  2.1173
 3030TP3      O 9101   2.729   2.708   1.818  0.1556 -0.3920 -0.1216
 3030TP3     H1 9102   2.776   2.639   1.772 -0.0540 -0.8279  0.3001
 3030TP3     H2 9103   2.729   2.782   1.758 -0.4512 -1.0740 -0.9828
 3031TP3      O 9104   2.165   2.738   0.446 -0.4903 -0.5896  0.0787
 3031TP3     H1 9105   2.154   2.757   0.539  1.0740  1.5253 -0.1202
 3031TP3     H2 9106   2.246   2.783   0.421 -0.8830 -1.0833 -2.3175
 3032TP3      O 9107   1.877   2.374   2.237 -0.1543 -0.0326  0.4790
 3032TP3     H1 9108   1.949   2.417   2.191 -0.0691  1.5097  1.9517
 3032TP3     H2 9109   1.903   2.376   2.330 -0.3946 -2.8792  0.6909
 3033TP3      O 9110   3.046   3.690   2.367  0.1637 -0.0185  0.8747
 3033TP3     H1 9111   3.105   3.708   2.440  0.7275  1.9941 -0.0079
 3033TP3     H2 9112   3.099   3.638   2.306  0.2328 -0.2562  1.1320
 3034TP3      O 9113   1.949   1.987   1.176  0.0274 -0.3575 -0.0552
 3034TP3     H1 9114   1.913   2.036   1.102  2.5059  0.9666 -0.5088
 3034TP3     H2 9115   1.958   1.898   1.143 -2.1376 -0.6147 -0.1031
 3035TP3      O 9116   3.347   3.331   0.885 -0.0631 -0.1560  0.7867
 3035TP3     H1 9117   3.253   3.318   0.869  0.0951 -0.7649  0.3140
 3035TP3     H2 9118   3.357   3.426   0.890 -0.3841  0.0588 -1.3493
 3036TP3      O 9119   1.756   2.962   1.302  0.5929 -0.5744  0.2399
 3036TP3     H1 9120   1.765   2.868   1.321  1.1581 -0.4146  0.7986
 3036TP3     H2 9121   1.720   2.998   1.383  3.0596  0.1295  1.0994
 3037TP3      O 9122   3.059   2.275   1.622 -0.7907  0.0760  0.3726
 3037TP3     H1 9123   3.044   2.187   1.655  0.6869 -0.4497 -0.2334
 3037TP3     H2 9124   3.042   2.269   1.528 -0.8620  0.4818  0.3559
 3038TP3      O 9125   2.283   3.360   1.657  0.0264  0.3744 -0.3570
 3038TP3     H1 9126   2.235   3.354   1.739 -0.4198 -0.9150 -0.7009
 3038TP3     H2 9127   2.245   3.292   1.601  1.3242  0.2378 -1.1137
 3039TP3      O 9128   2.577   1.794   5.597  0.3029 -0.0823 -0.3270
 3039TP3     H1 9129   2.654   1.739   5.586 -0.1022 -0.3903 -1.8789
 3039TP3     H2 9130   2.570   1.842   5.514 -3.3314 -2.8699 -1.9160
 3040TP3      O 9131   2.203   3.547   1.114 -0.1449 -0.3763  0.2700
 3040TP3     H1 9132   2.248   3.489   1.053 -1.2738 -0.7537 -0.2318
 3040TP3     H2 9133   2.263   3.554   1.189 -0.0402 -2.3020  0.4221
 3041TP3      O 9134   3.135   1.902   2.349  0.4859  0.4937  0.3036
 3041TP3     H1 9135   3.220   1.857   2.352  0.2594  0.0532  0.2068
 3041TP3     H2 9136   3.114   1.908   2.256 -1.0407 -2.2214  0.3588
 3042TP3      O 9137   2.894   2.494   0.686 -0.5817 -0.0209  0.3312
 3042TP3     H1 9138   2.853   2.524   0.767 -1.9131 -1.1219  0.1046
 3042TP3     H2 9139   2.867   2.558   0.620 -0.0620  0.4935  0.6044
 3043TP3      O 9140   3.033   4.043   1.016 -0.0836  0.6595  0.0653
 3043TP3     H1 9141   2.977   4.049   0.939  2.9162  0.8093 -2.2673
 3043TP3     H2 9142   3.037   3.950   1.036 -0.5544  0.5772 -0.2062
 3044TP3      O 9143   2.970   4.538   1.716 -0.1729 -0.3962  0.4710
 3044TP3     H1 9144   2.969   4.604   1.646 -5.0013  0.0231  0.6102
 3044TP3     H2 9145   3.004   4.585   1.792  2.0408  0.0751 -0.7121
 3045TP3      O 9146   2.759   2.746   0.660  0.2435 -0.0429 -0.0232
 3045TP3     H1 9147   2.689   2.681   0.670  0.9497 -0.9551 -0.7647
 3045TP3     H2 9148   2.713   2.829   0.652 -0.7272 -0.5363  0.2066
 3046TP3      O 9149   2.356   3.704   2.223 -0.1172  0.8218  0.0447
 3046TP3     H1 9150   2.443   3.707   2.185  0.5834  0.5675  1.5736
 3046TP3     H2 9151   2.363   3.752   2.305 -1.2310  0.1877  0.5409
 3047TP3      O 9152   3.276   1.505   0.134  0.0684 -0.3161 -0.0081
 3047TP3     H1 9153   3.229   1.486   0.215 -0.7385 -1.7036 -0.7598
 3047TP3     H2 9154   3.208   1.537   0.074  0.0366 -2.1188 -1.0312
 3048TP3      O 9155   3.482   1.944   0.140 -0.0777  0.3341  0.4637
 3048TP3     H1 9156   3.550   1.910   0.198 -0.5982  1.2544  1.6668
 3048TP3     H2 9157   3.409   1.883   0.151  1.2219 -2.0732 -2.6424
 3049TP3      O 9158   3.818   4.438   0.780  0.9101 -0.4586  0.9647
 3049TP3     H1 9159   3.750   4.391   0.732  0.8674 -0.6840  1.2423
 3049TP3     H2 9160   3.778   4.523   0.799  1.6407  0.4263 -1.1393
 3050TP3      O 9161   1.395   3.374   2.416 -0.7772  0.2384 -0.6779
 3050TP3     H1 9162   1.374   3.444   2.478 -1.6699 -1.6348  1.2655
 3050TP3     H2 9163   1.489   3.383   2.400  0.4092 -1.4015  3.9875
 3051TP3      O 9164   2.625   2.879   1.070 -0.1825  0.2318 -0.1951
 3051TP3     H1 9165   2.680   2.950   1.106  2.2249  0.0025 -3.0037
 3051TP3     H2 9166   2.560   2.925   1.017  0.3419  0.4166 -0.6931
 3052TP3      O 9167   2.039   2.305   1.228  0.5236 -0.5901  0.1071
 3052TP3     H1 9168   2.065   2.218   1.257  1.1230 -0.6106 -0.4520
 3052TP3     H2 9169   2.094   2.365   1.278  0.8553 -0.5852 -0.2533
 3053TP3      O 9170   2.486   4.103   5.588 -0.2584 -0.0206 -0.2380
 3053TP3     H1 9171   2.490   4.192   5.623  0.7636  1.0787 -2.9211
 3053TP3     H2 9172   2.460   4.113   5.497 -1.3090 -2.6126 -0.3298
 3054TP3      O 9173   3.024   4.276   1.686 -0.1789  0.1961 -0.1531
 3054TP3     H1 9174   3.050   4.254   1.776  0.4684 -0.2385 -0.4344
 3054TP3     H2 9175   2.995   4.367   1.691  1.2389  0.6561  0.2335
 3055TP3      O 9176   3.883   2.633   0.681  0.0457 -0.1393  0.0324
 3055TP3     H1 9177   3.802   2.634   0.631  0.1599 -1.6617 -0.2113
 3055TP3     H2 9178   3.860   2.590   0.764  0.2989  0.6757  0.5448
 3056TP3      O 9179   2.730   2.242   0.897  0.4431  0.1111  0.2148
 3056TP3     H1 9180   2.714   2.201   0.982 -2.3861  0.3699 -0.1186
 3056TP3     H2 9181   2.825   2.234   0.885  0.6426 -1.9672  2.3485
 3057TP3      O 9182   3.079   3.056   0.102  0.0887 -0.4524 -0.6170
 3057TP3     H1 9183   3.172   3.034   0.098  0.4098  0.7479 -0.2576
 3057TP3     H2 9184   3.071   3.136   0.050 -0.3481  0.6181  1.0321
 3058TP3      O 9185   2.746   2.501   1.592 -0.0902  0.8753  0.3345
 3058TP3     H1 9186   2.804   2.524   1.518 -2.1528 -2.0800 -2.4690
 3058TP3     H2 9187   2.670   2.558   1.580  0.7990  2.5898  2.2042
 3059TP3      O 9188   2.672   3.038   5.989  0.3295  0.1642  0.0554
 3059TP3     H1 9189   2.680   2.963   6.048 -0.5889 -0.2162 -0.2958
 3059TP3     H2 9190   2.742   3.025   5.925  2.6754  1.6107  2.1074
 3060TP3      O 9191   4.016   3.121   5.627 -0.3749 -0.1050  0.4703
 3060TP3     H1 9192   3.944   3.132   5.690 -0.7491  0.5661 -0.0688
 3060TP3     H2 9193   3.974   3.086   5.549 -0.3201  1.3714 -0.2499
 3061TP3      O 9194   1.560   3.243   1.276 -0.0998  0.3562 -0.4245
 3061TP3     H1 9195   1.521   3.160   1.250 -0.1181 -0.2256  1.3625
 3061TP3     H2 9196   1.597   3.279   1.195  0.0752 -1.4801 -1.1921
 3062TP3      O 9197   3.417   3.018   1.335  0.2587 -0.0175 -0.6043
 3062TP3     H1 9198   3.416   2.952   1.266 -3.4212 -0.7438 -0.0336
 3062TP3     H2 9199   3.373   3.094   1.297  0.2905  0.4294  0.2091
 3063TP3      O 9200   3.384   3.115   1.046  0.9151 -0.4359 -0.4074
 3063TP3     H1 9201   3.371   3.169   0.968 -0.4035 -2.4025 -1.6299
 3063TP3     H2 9202   3.346   3.166   1.117  0.5448  0.6291 -1.3365
 3064TP3      O 9203   2.710   1.518   0.482 -0.4424  0.6077  0.4168
 3064TP3     H1 9204   2.797   1.480   0.491 -0.0284  1.2412 -0.6449
 3064TP3     H2 9205   2.651   1.448   0.509  0.3566 -0.2457  0.0485
 3065TP3      O 9206   1.992   3.802   0.702 -0.5526 -0.2369  0.2675
 3065TP3     H1 9207   2.009   3.767   0.790  1.1419  0.1420  0.1368
 3065TP3     H2 9208   1.994   3.724   0.645  1.0063 -0.2200  0.2573
 3066TP3      O 9209   3.031   1.695   1.014  0.2104  0.3342  0.6164
 3066TP3     H1 9210   3.085   1.649   0.949  0.2351  1.3561 -0.1017
 3066TP3     H2 9211   3.012   1.780   0.974 -0.6522  0.5809  1.5129
 3067TP3      O 9212   1.393   3.380   0.754 -0.1673 -0.2560  0.1212
 3067TP3     H1 9213   1.419   3.402   0.665  0.6892 -2.5154 -0.2678
 3067TP3     H2 9214   1.466   3.410   0.808 -0.7551  1.2563  0.1177
 3068TP3      O 9215   0.933   3.022   1.117  0.6597  0.7214 -0.0702
 3068TP3     H1 9216   0.931   2.961   1.043 -0.5760  1.0005 -0.2848
 3068TP3     H2 9217   1.023   3.056   1.117  1.2763 -0.8010 -0.1731
 3069TP3      O 9218   2.045   1.633   2.518 -0.2532  0.1320  0.0321
 3069TP3     H1 9219   2.003   1.558   2.475  0.8459 -1.5455  1.7061
 3069TP3     H2 9220   1.979   1.667   2.577 -0.1880 -0.7091  0.6020
 3070TP3      O 9221   0.962   2.962   0.470 -0.3089  0.1216 -0.3133
 3070TP3     H1 9222   1.057   2.966   0.480 -0.5073 -0.4246  2.8843
 3070TP3     H2 9223   0.948   2.963   0.376  2.7534  2.1384 -0.9182
 3071TP3      O 9224   3.151   3.004   1.434  0.3507  0.4831  0.6364
 3071TP3     H1 9225   3.239   3.007   1.396  2.0646 -1.0523  4.0091
 3071TP3     H2 9226   3.112   2.925   1.396  0.8403  0.6122 -0.1566
 3072TP3      O 9227   3.066   1.949   0.307  0.4897 -0.2190 -0.0158
 3072TP3     H1 9228   2.998   1.891   0.340  1.8907 -2.4853 -0.8942
 3072TP3     H2 9229   3.020   2.031   0.287 -1.6371 -1.1220  0.8877
 3073TP3      O 9230   2.408   2.847   0.331  0.7681 -0.2956 -1.0309
 3073TP3     H1 9231   2.390   2.910   0.261 -0.8322 -1.3290 -1.5874
 3073TP3     H2 9232   2.386   2.762   0.293  0.9247 -0.9950  0.3858
 3074TP3      O 9233   2.216   2.755   1.847 -0.4257 -0.6163 -0.1845
 3074TP3     H1 9234   2.297   2.716   1.881 -0.5016 -1.7023 -1.1624
 3074TP3     H2 9235   2.178   2.801   1.922  2.7396  2.8825 -0.3921
 3075TP3      O 9236   3.300   4.668   1.608  0.3081 -0.1529  0.3308
 3075TP3     H1 9237   3.346   4.585   1.593  0.3660  0.3921 -3.2843
 3075TP3     H2 9238   3.215   4.656   1.565 -0.2270  1.2494  0.9421
 3076TP3      O 9239   2.053   2.522   2.070  0.1193 -0.4611 -0.2862
 3076TP3     H1 9240   2.000   2.500   1.993 -0.8716  1.0557 -0.0863
 3076TP3     H2 9241   2.142   2.499   2.045 -0.0368  0.8379 -2.2986
 3077TP3      O 9242   3.662   3.761   1.245  0.7542 -0.5096 -0.2240
 3077TP3     H1 9243   3.743   3.757   1.194  0.2184 -1.8584 -1.0176
 3077TP3     H2 9244   3.671   3.841   1.298  3.3433 -1.4726  0.9747
 3078TP3      O 9245   1.329   4.311   1.671  0.7903 -0.4969 -0.6028
 3078TP3     H1 9246   1.365   4.318   1.759 -0.3061  1.0718 -0.2442
 3078TP3     H2 9247   1.311   4.401   1.645 -4.0448 -1.1002 -0.2090
 3079TP3      O 9248   3.004   3.211   1.379  0.1257  0.7184 -0.2928
 3079TP3     H1 9249   3.059   3.137   1.404  0.6970  0.9273 -0.8957
 3079TP3     H2 9250   3.056   3.288   1.402 -1.1760  0.9988  1.9629
 3080TP3      O 9251   3.061   2.339   0.559 -0.5364  0.6831  0.0561
 3080TP3     H1 9252   3.011   2.257   0.552  0.1464  0.3228 -0.8293
 3080TP3     H2 9253   3.001   2.400   0.603 -1.3467 -0.0573  0.0118
 3081TP3      O 9254   2.842   2.845   0.928 -0.0458 -0.3156  0.1344
 3081TP3     H1 9255   2.760   2.864   0.972 -0.7456 -0.9686 -0.8492
 3081TP3     H2 9256   2.860   2.754   0.950  0.5769 -0.0861  0.5934
 3082TP3      O 9257   3.541   2.185   1.780 -0.0296 -0.5527  0.0400
 3082TP3     H1 9258   3.474   2.224   1.724  0.4135 -0.1183 -0.1907
 3082TP3     H2 9259   3.564   2.102   1.737  0.7534  0.0677 -0.7628
 3083TP3      O 9260   3.262   2.559   1.215  0.1715 -0.9074  0.6031
 3083TP3     H1 9261   3.246   2.526   1.127  1.7243  0.9203 -0.4420
 3083TP3     H2 9262   3.305   2.486   1.260 -0.9658 -1.9927  0.0278
 3084TP3      O 9263   2.102   3.984   4.704  0.4950 -0.0360 -0.9543
 3084TP3     H1 9264   2.185   3.938   4.690  1.5127  1.5460 -0.4188
 3084TP3     H2 9265   2.119   4.042   4.779 -1.2835 -0.1002 -0.4633
 3085TP3      O 9266   2.548   4.162   0.761 -0.2343  0.3444 -0.0294
 3085TP3     H1 9267   2.453   4.171   0.760 -0.3933 -1.0458  0.6159
 3085TP3     H2 9268   2.571   4.164   0.854  0.4233  1.0047 -0.1903
 3086TP3      O 9269   3.333   2.834   1.667 -0.4390  0.2637  0.3257
 3086TP3     H1 9270   3.295   2.808   1.751 -1.0739 -0.5774 -0.2108
 3086TP3     H2 9271   3.258   2.842   1.608  0.1558 -1.0868 -0.6616
 3087TP3      O 9272   2.793   3.042   5.694 -0.0811 -0.0759 -0.4721
 3087TP3     H1 9273   2.716   3.092   5.719  0.3962 -0.5964  2.3752
 3087TP3     H2 9274   2.759   2.957   5.668 -0.5005 -0.2915  0.7329
 3088TP3      O 9275   4.707   3.920   1.049 -0.8181  0.4319 -0.1768
 3088TP3     H1 9276   4.706   3.933   0.954 -0.4764  3.0099  0.0945
 3088TP3     H2 9277   4.616   3.906   1.072 -0.8795 -0.4673 -0.8881
 3089TP3      O 9278   2.400   3.576   2.532  0.3183  0.4032 -0.6983
 3089TP3     H1 9279   2.444   3.659   2.513 -2.1365  1.6358 -1.3783
 3089TP3     H2 9280   2.405   3.527   2.450  2.0653 -0.3468 -0.2009
 3090TP3      O 9281   2.447   3.780   0.440 -0.3073  0.3822  0.4607
 3090TP3     H1 9282   2.488   3.706   0.484 -3.4782 -0.8161  1.6931
 3090TP3     H2 9283   2.455   3.761   0.347 -0.8317 -1.4313  0.7496
 3091TP3      O 9284   1.604   3.708   2.072  0.4125  0.2529 -0.7621
 3091TP3     H1 9285   1.587   3.701   1.978  2.2865 -0.2457 -1.0954
 3091TP3     H2 9286   1.520   3.686   2.113 -0.8778  1.9949 -2.3115
 3092TP3      O 9287   3.381   1.756   1.134 -0.3002 -0.4768  0.0665
 3092TP3     H1 9288   3.326   1.705   1.194  0.3802 -1.2805  0.0292
 3092TP3     H2 9289   3.388   1.842   1.175  0.1701 -1.0196  1.1691
 3093TP3      O 9290   2.376   1.811   0.778  0.1861 -0.0018 -0.0733
 3093TP3     H1 9291   2.419   1.725   0.775  0.4418  0.1437 -0.8872
 3093TP3     H2 9292   2.347   1.820   0.868 -0.6820 -1.3603 -0.1812
 3094TP3      O 9293   4.334   4.250   0.600  0.3080  1.2805  0.3209
 3094TP3     H1 9294   4.272   4.207   0.541  0.7716 -0.6630  1.1691
 3094TP3     H2 9295   4.368   4.324   0.550 -0.7126  0.8068 -1.1312
 3095TP3      O 9296   2.203   2.452   0.684  0.3193 -1.0636  0.5034
 3095TP3     H1 9297   2.282   2.426   0.731  1.3678  2.0351  0.6118
 3095TP3     H2 9298   2.225   2.443   0.592  0.1623 -1.8435  0.5327
 3096TP3      O 9299   3.274   2.287   0.726 -0.0729 -0.7006  0.2463
 3096TP3     H1 9300   3.242   2.338   0.651 -0.3162 -1.0935  0.0783
 3096TP3     H2 9301   3.222   2.207   0.724  0.3527 -0.9880  0.4616
 3097TP3      O 9302   2.819   2.544   0.932  0.3967 -0.4544 -0.3025
 3097TP3     H1 9303   2.881   2.546   1.004 -0.5128 -1.2148  0.5375
 3097TP3     H2 9304   2.761   2.470   0.952 -0.5179 -0.0352 -1.2708
 3098TP3      O 9305   3.328   1.272   1.137  0.2379  0.3233 -0.6100
 3098TP3     H1 9306   3.307   1.308   1.223  1.8237  0.9537 -0.4610
 3098TP3     H2 9307   3.414   1.307   1.116  0.8667 -1.5654 -1.4756
 3099TP3      O 9308   2.900   3.041   0.293 -0.4622 -0.1143  0.2400
 3099TP3     H1 9309   2.954   3.063   0.217 -1.4433  0.6150 -0.2684
 3099TP3     H2 9310   2.814   3.075   0.272 -0.6109  0.7095  1.9641
 3100TP3      O 9311   1.920   2.461   0.728 -0.0118  0.1439  0.3928
 3100TP3     H1 9312   1.998   2.435   0.679 -0.6498 -1.5863  0.2400
 3100TP3     H2 9313   1.941   2.439   0.819  0.2402  1.1132  0.5851
 3101TP3      O 9314   3.150   1.496   5.717 -0.0196  0.1175  0.3167
 3101TP3     H1 9315   3.144   1.401   5.730 -2.0353 -0.1208 -1.6084
 3101TP3     H2 9316   3.077   1.531   5.767 -1.7417  0.1556 -2.0334
 3102TP3      O 9317   3.269   2.762   0.593  0.1146  0.6129 -0.4679
 3102TP3     H1 9318   3.245   2.769   0.501 -0.0449  0.6269 -0.4247
 3102TP3     H2 9319   3.355   2.804   0.599  0.6205 -0.3534 -0.8171
 3103TP3      O 9320   3.558   1.603   0.522 -0.0940 -0.4828  0.1657
 3103TP3     H1 9321   3.470   1.619   0.488  0.0060 -0.3846 -0.0439
 3103TP3     H2 9322   3.601   1.689   0.521 -0.4726 -0.2456  1.6352
 3104TP3      O 9323   2.530   2.392   0.412 -0.2715 -0.4039 -0.3635
 3104TP3     H1 9324   2.583   2.455   0.362  1.3909 -1.2149  0.3097
 3104TP3     H2 9325   2.585   2.367   0.486 -0.5800 -3.1452 -0.9456
 3105TP3      O 9326   1.875   3.516   5.895  0.1227  0.1156 -0.0461
 3105TP3     H1 9327   1.881   3.610   5.913 -1.6949  0.2870 -0.1525
 3105TP3     H2 9328   1.941   3.500   5.828  0.5485  1.2856  0.0661
 3106TP3      O 9329   1.651   2.435   2.037 -0.1142  0.3157  0.1069
 3106TP3     H1 9330   1.682   2.379   1.965 -0.0573 -1.2876  1.3165
 3106TP3     H2 9331   1.732   2.468   2.077 -0.1177  0.4151  0.0319
 3107TP3      O 9332   2.230   1.632   4.062  0.0361 -0.1278 -0.0818
 3107TP3     H1 9333   2.274   1.563   4.111 -3.0231 -2.9877 -1.0350
 3107TP3     H2 9334   2.164   1.666   4.122 -0.1252  0.2204 -0.4525
 3108TP3      O 9335   1.121   2.234   3.532 -0.8060 -0.1995  0.8702
 3108TP3     H1 9336   1.035   2.237   3.491 -0.3981  0.1447  0.0172
 3108TP3     H2 9337   1.166   2.312   3.501 -0.2525 -0.2672  1.4708
 3109TP3      O 9338   2.895   2.479   3.272  0.3069 -0.6911  0.0695
 3109TP3     H1 9339   2.951   2.498   3.348 -1.9026 -1.1522  1.9236
 3109TP3     H2 9340   2.807   2.500   3.302 -0.9285 -3.1855 -1.5335
 3110TP3      O 9341   3.014   3.284   2.563  0.0713 -0.0468  0.0244
 3110TP3     H1 9342   3.105   3.255   2.562  1.0350  2.6661  0.1926
 3110TP3     H2 9343   3.013   3.357   2.626 -1.6833  1.3961 -1.5493
 3111TP3      O 9344   2.722   2.318   1.814 -0.0545  0.4857  0.3325
 3111TP3     H1 9345   2.797   2.359   1.858  0.9628 -0.7703 -0.1683
 3111TP3     H2 9346   2.692   2.383   1.751  3.0593 -0.3107 -2.1888
 3112TP3      O 9347   3.890   2.465   1.920 -0.3891 -0.3507  0.2980
 3112TP3     H1 9348   3.979   2.446   1.950 -0.9975  0.1435  2.6352
 3112TP3     H2 9349   3.841   2.385   1.939 -0.6834 -0.2451  0.0021
 3113TP3      O 9350   2.449   2.777   2.988 -0.8034  0.3673  0.7854
 3113TP3     H1 9351   2.501   2.828   3.049 -0.3323  0.9738 -0.1034
 3113TP3     H2 9352   2.503   2.770   2.910 -1.3798 -0.4190  0.4404
 3114TP3      O 9353   2.205   2.341   2.485  0.1240  0.2179  0.0455
 3114TP3     H1 9354   2.209   2.293   2.402 -0.6183  1.1152 -0.5304
 3114TP3     H2 9355   2.182   2.275   2.550 -0.1584 -0.3427 -0.6112
 3115TP3      O 9356   2.319   3.431   3.708  0.0611  0.4605 -0.1219
 3115TP3     H1 9357   2.261   3.362   3.742  0.5188  0.5552  0.8960
 3115TP3     H2 9358   2.352   3.396   3.626 -0.0144 -0.3785  0.1916
 3116TP3      O 9359   2.201   3.258   2.177  0.2488  0.1283  0.3723
 3116TP3     H1 9360   2.224   3.215   2.095  2.5871  0.8550  0.5724
 3116TP3     H2 9361   2.188   3.187   2.240  1.0606 -0.3742 -0.0196
 3117TP3      O 9362   3.387   3.004   3.396 -0.0588 -0.2245 -0.4596
 3117TP3     H1 9363   3.477   3.031   3.413  0.0973 -0.1745 -1.3460
 3117TP3     H2 9364   3.394   2.938   3.328 -0.6600 -0.5465 -0.2141
 3118TP3      O 9365   2.500   2.880   3.576  0.4201  0.2316  0.2664
 3118TP3     H1 9366   2.578   2.926   3.608  1.4230 -1.3783  0.2538
 3118TP3     H2 9367   2.471   2.931   3.501  2.1283  0.3031 -0.3982
 3119TP3      O 9368   3.806   1.987   2.348  0.1634  0.4856  0.8092
 3119TP3     H1 9369   3.754   1.913   2.379  0.6543  0.5249  1.7630
 3119TP3     H2 9370   3.861   2.011   2.423 -0.2557  2.0528  0.6447
 3120TP3      O 9371   2.179   3.448   2.866 -0.8951  0.2919  0.2052
 3120TP3     H1 9372   2.189   3.358   2.898 -1.8295  0.0117 -0.2603
 3120TP3     H2 9373   2.185   3.501   2.946  1.9458  0.0608  0.2696
 3121TP3      O 9374   3.243   3.202   3.903  0.0775  0.2454 -0.4928
 3121TP3     H1 9375   3.282   3.286   3.879 -0.6191  0.9084  0.6270
 3121TP3     H2 9376   3.149   3.213   3.888  0.1046 -0.7823 -1.5684
 3122TP3      O 9377   1.280   3.843   1.082 -0.5400 -0.0364 -0.1936
 3122TP3     H1 9378   1.315   3.779   1.020 -1.3288  2.1525 -3.0880
 3122TP3     H2 9379   1.344   3.914   1.082 -1.9831  1.3228 -0.9146
 3123TP3      O 9380   2.416   2.496   2.584  0.3597 -0.0188 -0.1131
 3123TP3     H1 9381   2.354   2.503   2.511 -1.9426 -0.1622  1.7011
 3123TP3     H2 9382   2.372   2.438   2.646  2.0585  0.4306  1.5677
 3124TP3      O 9383   2.041   3.695   3.524  0.0997 -0.0839  0.0277
 3124TP3     H1 9384   2.071   3.736   3.442 -0.5345  2.4574  0.9705
 3124TP3     H2 9385   1.952   3.666   3.506 -0.0646  0.5367 -0.1746
 3125TP3      O 9386   3.125   2.671   2.433 -0.7413  0.2436  0.4914
 3125TP3     H1 9387   3.134   2.764   2.412  0.4160 -0.2253 -1.3501
 3125TP3     H2 9388   3.148   2.625   2.352 -1.2250 -1.6615  1.3581
 3126TP3      O 9389   2.722   2.188   3.333 -0.0969  0.0084  0.0209
 3126TP3     H1 9390   2.799   2.181   3.278  0.6881 -0.0161  1.0822
 3126TP3     H2 9391   2.734   2.270   3.381  0.2323 -0.9068  1.5755
 3127TP3      O 9392   1.368   2.340   3.162  0.0934  0.3854 -0.5062
 3127TP3     H1 9393   1.413   2.277   3.106  1.1352  1.8985 -1.4423
 3127TP3     H2 9394   1.426   2.351   3.238 -0.1577  0.1127 -0.2738
 3128TP3      O 9395   2.827   5.280   2.730  0.7580  0.5342  0.0117
 3128TP3     H1 9396   2.759   5.348   2.732 -2.2543 -2.2292 -0.0934
 3128TP3     H2 9397   2.826   5.248   2.640  1.8377  0.0446  0.1591
 3129TP3      O 9398   0.497   3.190   2.455 -0.3137 -0.1335 -0.5562
 3129TP3     H1 9399   0.525   3.110   2.500 -1.6871 -0.3654 -0.0524
 3129TP3     H2 9400   0.563   3.255   2.476 -0.2939 -0.5782  0.8043
 3130TP3      O 9401   4.004   2.945   2.643  0.2129  0.2357 -0.5635
 3130TP3     H1 9402   4.074   2.985   2.695 -1.3905  0.4308  1.5570
 3130TP3     H2 9403   3.945   3.017   2.622  0.4964  0.0349 -2.1331
 3131TP3      O 9404   3.771   1.966   2.073  0.3978  1.0679  0.3040
 3131TP3     H1 9405   3.806   1.932   2.155  1.5714  1.0888 -0.1749
 3131TP3     H2 9406   3.681   1.934   2.071  0.3384  1.0844  1.6013
 3132TP3      O 9407   2.176   3.173   2.943  0.1116 -0.4804  0.5753
 3132TP3     H1 9408   2.257   3.154   2.896  0.3509 -1.0178  1.1995
 3132TP3     H2 9409   2.181   3.120   3.022 -1.7461 -2.1095 -0.3143
 3133TP3      O 9410   2.830   3.272   2.830  0.6185 -0.1957  0.4649
 3133TP3     H1 9411   2.764   3.242   2.767 -0.0784  2.5888 -0.2876
 3133TP3     H2 9412   2.914   3.255   2.787  0.1597  3.1708 -2.2005
 3134TP3      O 9413   2.328   1.615   2.582 -0.6122 -0.4477  0.2251
 3134TP3     H1 9414   2.415   1.619   2.622 -0.7636  1.9578  0.4723
 3134TP3     H2 9415   2.276   1.561   2.642 -0.1626  0.9683  1.9770
 3135TP3      O 9416   2.194   2.720   2.372  0.2051  0.2152 -0.1951
 3135TP3     H1 9417   2.253   2.725   2.446  2.1327 -0.2180 -1.6253
 3135TP3     H2 9418   2.224   2.644   2.322 -3.4501 -1.9044  0.5200
 3136TP3      O 9419   3.527   3.203   1.496 -0.1549 -0.7315  0.1456
 3136TP3     H1 9420   3.572   3.270   1.445 -0.8653  0.8311  1.4775
 3136TP3     H2 9421   3.519   3.129   1.436 -0.9243  0.9769 -1.9993
 3137TP3      O 9422   2.981   3.258   3.623  0.0503  1.2742 -0.1916
 3137TP3     H1 9423   3.062   3.306   3.607  0.8010 -0.4939 -2.2425
 3137TP3     H2 9424   2.932   3.265   3.541 -0.9461  0.6649  0.3332
 3138TP3      O 9425   2.212   1.482   3.124 -0.0843 -0.2338  0.0551
 3138TP3     H1 9426   2.138   1.457   3.069  1.0793  0.2630 -1.8173
 3138TP3     H2 9427   2.267   1.536   3.068  0.8352  0.8953  1.9431
 3139TP3      O 9428   3.363   3.656   3.071 -0.2607  0.0834  0.2493
 3139TP3     H1 9429   3.284   3.624   3.026 -0.9548  0.9559  0.7989
 3139TP3     H2 9430   3.426   3.585   3.062 -0.0814  0.5035 -2.7506
 3140TP3      O 9431   2.869   2.525   2.463 -0.3244 -0.1297 -0.0543
 3140TP3     H1 9432   2.948   2.473   2.455  0.2008  0.3231  1.7732
 3140TP3     H2 9433   2.897   2.615   2.448  0.1053  0.3647  3.0278
 3141TP3      O 9434   3.224   2.450   3.268  0.4650  0.3600  0.1301
 3141TP3     H1 9435   3.174   2.531   3.264 -1.3184 -0.6107  1.5523
 3141TP3     H2 9436   3.203   2.405   3.186  0.9166  0.9904 -0.3447
 3142TP3      O 9437   2.917   3.609   1.819 -0.7879 -0.1279 -1.0181
 3142TP3     H1 9438   2.960   3.555   1.885  0.1650  1.0604 -0.6375
 3142TP3     H2 9439   2.984   3.673   1.793 -2.1855  1.4997 -0.7392
 3143TP3      O 9440   2.741   2.025   4.207  0.0126  0.2637  0.3848
 3143TP3     H1 9441   2.693   2.063   4.134  0.3230 -0.1627 -0.0510
 3143TP3     H2 9442   2.776   2.100   4.255  0.4178  0.5408 -0.3297
 3144TP3      O 9443   3.699   1.997   3.870 -0.6233 -0.3955 -0.0865
 3144TP3     H1 9444   3.665   1.919   3.827 -0.0219 -0.4343 -0.4959
 3144TP3     H2 9445   3.751   1.964   3.944  0.6803 -0.4528 -0.9961
 3145TP3      O 9446   3.002   1.595   3.231 -0.3197 -0.4455  0.1452
 3145TP3     H1 9447   2.967   1.636   3.310  0.6266 -1.1081  0.9297
 3145TP3     H2 9448   2.925   1.556   3.189 -1.1905  1.7306 -0.4392
 3146TP3      O 9449   3.855   2.071   3.257 -0.2896  0.0657  0.0771
 3146TP3     H1 9450   3.873   1.978   3.268  1.1907  0.3000 -0.2572
 3146TP3     H2 9451   3.920   2.115   3.311 -0.6064  0.9301 -0.2211
 3147TP3      O 9452   3.290   2.435   2.622 -0.0305 -0.0980 -0.3943
 3147TP3     H1 9453   3.307   2.530   2.624  4.3389 -0.6090 -1.7228
 3147TP3     H2 9454   3.236   2.422   2.544 -0.4253  1.2325 -0.3689
 3148TP3      O 9455   1.121   2.138   2.584  0.5381 -0.4555  0.0267
 3148TP3     H1 9456   1.196   2.184   2.545  1.5339 -0.7957  1.4512
 3148TP3     H2 9457   1.112   2.177   2.671 -0.2663 -1.1607  0.2706
 3149TP3      O 9458   1.770   3.709   3.637 -0.1193  0.3564  0.2098
 3149TP3     H1 9459   1.813   3.792   3.660  0.0034  0.7563 -1.3924
 3149TP3     H2 9460   1.677   3.726   3.649 -0.2531  1.3635 -1.9104
 3150TP3      O 9461   2.912   2.125   2.422 -0.0102  0.0122 -0.4163
 3150TP3     H1 9462   2.961   2.045   2.405 -1.1958 -0.7801 -0.2692
 3150TP3     H2 9463   2.833   2.095   2.467 -0.0895  1.3583  0.3908
 3151TP3      O 9464   3.997   2.763   4.252  0.2610 -0.9352 -0.6517
 3151TP3     H1 9465   4.018   2.682   4.206  2.0053 -1.7743  1.4258
 3151TP3     H2 9466   4.082   2.795   4.283 -0.7548 -0.3293  1.7248
 3152TP3      O 9467   3.115   3.236   2.291  0.4936  0.2856 -0.3785
 3152TP3     H1 9468   3.064   3.275   2.362 -1.3292  2.1375 -2.4943
 3152TP3     H2 9469   3.053   3.180   2.245  1.4485 -0.4085 -0.8533
 3153TP3      O 9470   2.576   1.592   2.724 -0.1361 -0.1773  0.5493
 3153TP3     H1 9471   2.587   1.619   2.815 -0.8726  2.5444 -0.0615
 3153TP3     H2 9472   2.576   1.497   2.727  0.8038 -0.1873  3.2542
 3154TP3      O 9473   2.656   3.006   2.901  0.5260 -0.3016 -0.1163
 3154TP3     H1 9474   2.705   3.073   2.948  1.2148 -1.6326  1.1426
 3154TP3     H2 9475   2.720   2.937   2.884 -0.6349 -1.6216  0.6185
 3155TP3      O 9476   2.065   4.896   2.483 -0.0715  0.0025 -0.2765
 3155TP3     H1 9477   2.036   4.926   2.569  2.7163  0.5367  0.5710
 3155TP3     H2 9478   2.011   4.945   2.421 -2.6306 -0.9240  1.1046
 3156TP3      O 9479   3.345   3.420   3.308  0.0084 -0.7045 -0.1227
 3156TP3     H1 9480   3.374   3.433   3.218 -2.8041  0.7571 -0.9548
 3156TP3     H2 9481   3.350   3.507   3.349  2.9135 -1.6441  1.7995
 3157TP3      O 9482   2.440   3.682   3.266  0.0934 -0.1147  0.5020
 3157TP3     H1 9483   2.535   3.681   3.263  0.2536  1.4964  2.7497
 3157TP3     H2 9484   2.417   3.627   3.341 -0.8767 -1.5198 -0.7478
 3158TP3      O 9485   1.922   3.114   2.787 -0.5016  0.0756 -0.6319
 3158TP3     H1 9486   1.995   3.133   2.847 -0.5913  0.1635 -0.5509
 3158TP3     H2 9487   1.959   3.126   2.700 -0.6157  0.8345 -0.5795
 3159TP3      O 9488   2.950   1.688   2.319  0.3118  0.8012 -0.4199
 3159TP3     H1 9489   2.875   1.691   2.379  0.6779 -2.3442  0.3638
 3159TP3     H2 9490   2.993   1.773   2.331 -1.8082  1.7824  0.8376
 3160TP3      O 9491   2.782   3.287   3.802 -0.3851  0.5685  0.2372
 3160TP3     H1 9492   2.812   3.224   3.868 -0.9491 -1.1202 -1.0655
 3160TP3     H2 9493   2.860   3.306   3.750 -0.3921  0.2933  0.1230
 3161TP3      O 9494   2.725   3.300   2.058 -0.0090 -0.1415  0.3876
 3161TP3     H1 9495   2.749   3.235   1.993  1.2384  1.9230 -1.3608
 3161TP3     H2 9496   2.704   3.378   2.007 -1.1294  0.9425  2.3909
 3162TP3      O 9497   1.614   2.331   3.604  0.5206  0.6457 -0.4343
 3162TP3     H1 9498   1.691   2.348   3.549 -1.1251  1.7533 -2.5399
 3162TP3     H2 9499   1.621   2.396   3.675  2.1890 -0.1855  0.2234
 3163TP3      O 9500   3.556   4.037   1.671 -0.0230 -0.1406 -0.4755
 3163TP3     H1 9501   3.609   3.962   1.699  0.8357  0.4525 -0.4787
 3163TP3     H2 9502   3.571   4.103   1.740 -1.0495 -0.0903 -0.2851
 3164TP3      O 9503   2.134   3.914   2.745 -0.0655 -0.1517 -0.0319
 3164TP3     H1 9504   2.171   3.826   2.741  3.6906  1.2807 -2.7357
 3164TP3     H2 9505   2.089   3.924   2.661  0.9770  0.9783 -0.4815
 3165TP3      O 9506   2.626   1.544   2.201 -0.2967  0.1482 -0.3053
 3165TP3     H1 9507   2.561   1.575   2.138 -1.0000 -1.8540 -0.6450
 3165TP3     H2 9508   2.633   1.615   2.265 -0.1705  1.8915 -2.1463
 3166TP3      O 9509   1.990   2.504   3.256 -0.0236  0.0770  0.2277
 3166TP3     H1 9510   2.061   2.522   3.318 -1.1399  1.7107  1.1384
 3166TP3     H2 9511   2.001   2.412   3.233  1.8028  0.0284  1.0741
 3167TP3      O 9512   2.638   3.343   3.125 -0.8824 -0.1944 -0.1693
 3167TP3     H1 9513   2.557   3.387   3.102 -1.4205 -1.8913 -1.7853
 3167TP3     H2 9514   2.707   3.402   3.094 -1.5690 -0.3910 -2.1975
 3168TP3      O 9515   2.540   3.128   1.765  0.1105  0.5728 -0.2754
 3168TP3     H1 9516   2.446   3.122   1.750 -0.1149  1.0526  0.8461
 3168TP3     H2 9517   2.573   3.181   1.692 -0.3652 -0.1788 -1.0579
 3169TP3      O 9518   3.740   2.240   3.570  0.4829 -0.2315 -0.3636
 3169TP3     H1 9519   3.684   2.218   3.495  0.5875 -0.9619 -0.2385
 3169TP3     H2 9520   3.829   2.231   3.536  0.5445 -1.3099  0.0295
 3170TP3      O 9521   1.932   1.475   1.526 -0.3541  0.2287 -0.0554
 3170TP3     H1 9522   1.973   1.553   1.563  0.6163 -0.5930  0.6593
 3170TP3     H2 9523   1.962   1.474   1.435 -0.3543  0.6648 -0.0647
 3171TP3      O 9524   2.905   2.520   4.366 -0.1615 -0.4265 -0.1711
 3171TP3     H1 9525   2.810   2.527   4.375 -0.0989  1.5205 -0.7073
 3171TP3     H2 9526   2.940   2.595   4.413  1.3207 -2.4557  2.2362
 3172TP3      O 9527   2.283   3.338   3.313  0.2659 -0.9383 -0.6187
 3172TP3     H1 9528   2.211   3.278   3.295  0.3452 -1.2974  0.2462
 3172TP3     H2 9529   2.349   3.284   3.357  1.9235 -1.1187 -3.0748
 3173TP3      O 9530   3.244   3.290   3.524  0.0084 -0.8694 -0.0400
 3173TP3     H1 9531   3.304   3.325   3.458 -1.4459  1.7281 -0.1057
 3173TP3     H2 9532   3.297   3.227   3.574  2.1090 -0.3510 -1.4987
 3174TP3      O 9533   2.645   3.124   3.322  0.2131  0.0687 -0.1611
 3174TP3     H1 9534   2.662   3.186   3.251 -1.2526 -0.1081 -0.6817
 3174TP3     H2 9535   2.578   3.065   3.288 -0.4132 -0.1198  1.3128
 3175TP3      O 9536   2.815   2.545   2.724 -0.2298 -0.3912  0.5033
 3175TP3     H1 9537   2.816   2.538   2.628 -2.0125 -1.8146  0.5429
 3175TP3     H2 9538   2.733   2.591   2.744 -0.3956 -1.0398  1.3771
 3176TP3      O 9539   2.293   2.153   2.656  0.0712  0.1578  0.2605
 3176TP3     H1 9540   2.388   2.164   2.662  0.2454 -1.1790  0.2079
 3176TP3     H2 9541   2.281   2.062   2.630 -1.2605  0.0045  1.3288
 3177TP3      O 9542   4.208   2.584   2.353  0.4857 -0.0492  0.2649
 3177TP3     H1 9543   4.117   2.592   2.326  1.0506  0.9363 -1.4937
 3177TP3     H2 9544   4.216   2.493   2.382 -0.3432 -1.1519 -2.5884
 3178TP3      O 9545   2.246   3.100   1.560 -0.2841  0.3518 -0.3210
 3178TP3     H1 9546   2.287   3.049   1.490  0.2234  1.1837 -0.6430
 3178TP3     H2 9547   2.183   3.040   1.599  0.8407 -0.7783 -0.1749
 3179TP3      O 9548   2.494   1.730   1.987 -0.0649 -0.1489 -0.5381
 3179TP3     H1 9549   2.521   1.815   1.953  0.9024  0.4155  1.4779
 3179TP3     H2 9550   2.432   1.750   2.057 -0.5480 -1.1618 -0.6527
 3180TP3      O 9551   2.451   2.947   3.217 -0.1403  0.0477  0.2489
 3180TP3     H1 9552   2.436   2.864   3.261 -1.7664  0.8885  1.3855
 3180TP3     H2 9553   2.373   2.960   3.164  0.3001  0.6379 -0.2603
 3181TP3      O 9554   2.981   3.907   2.716 -0.2043 -0.0314  0.7789
 3181TP3     H1 9555   2.903   3.908   2.660  0.0803 -0.0976  0.3706
 3181TP3     H2 9556   2.955   3.856   2.793 -0.5388 -0.1269  0.6042
 3182TP3      O 9557   2.547   3.382   2.665 -0.2769  0.4301  0.3028
 3182TP3     H1 9558   2.588   3.343   2.588 -0.9609 -2.0217  1.0892
 3182TP3     H2 9559   2.504   3.461   2.631 -0.8706 -0.7586 -1.9286
 3183TP3      O 9560   2.770   3.476   2.259  0.5230  0.1754  0.0250
 3183TP3     H1 9561   2.765   3.409   2.191  0.4178  0.3783 -0.1681
 3183TP3     H2 9562   2.733   3.554   2.218  0.9330  0.4330  0.1454
 3184TP3      O 9563   2.966   1.983   2.152 -0.7453  0.2193 -0.3641
 3184TP3     H1 9564   2.912   2.061   2.141 -2.0788 -0.6513 -0.2955
 3184TP3     H2 9565   2.939   1.925   2.081 -3.2793 -2.0479  2.2277
 3185TP3      O 9566   1.718   2.152   3.172 -0.4806 -0.0899  0.6630
 3185TP3     H1 9567   1.792   2.127   3.227  0.6217 -0.8977 -1.1071
 3185TP3     H2 9568   1.728   2.247   3.160  2.0108 -0.5333 -1.8153
 3186TP3      O 9569   1.676   1.641   3.178 -0.7385  0.3015 -0.2757
 3186TP3     H1 9570   1.641   1.730   3.182  0.1214  0.6147  1.5598
 3186TP3     H2 9571   1.620   1.590   3.237 -1.5633 -0.5412 -1.7320
 3187TP3      O 9572   3.086   2.331   2.386  0.0645 -0.1194 -0.2020
 3187TP3     H1 9573   3.026   2.257   2.398 -1.9667  1.5594  0.6766
 3187TP3     H2 9574   3.059   2.370   2.303 -1.0447  1.4272  0.8287
 3188TP3      O 9575   3.478   1.831   1.813 -0.0535 -0.3632 -0.3654
 3188TP3     H1 9576   3.406   1.877   1.770  0.6935  0.7801 -0.4183
 3188TP3     H2 9577   3.462   1.843   1.906 -0.1800 -0.5116 -0.3669
 3189TP3      O 9578   3.179   2.948   2.387 -0.5344 -0.0590 -0.3802
 3189TP3     H1 9579   3.248   2.969   2.324 -0.7093 -0.8909 -0.8798
 3189TP3     H2 9580   3.216   2.969   2.472 -0.0680  0.5230 -0.7210
 3190TP3      O 9581   3.674   3.358   2.427  0.3629  0.2548  0.9133
 3190TP3     H1 9582   3.720   3.421   2.482  1.1193 -0.2837  0.9161
 3190TP3     H2 9583   3.693   3.385   2.338 -0.0628  0.5559  0.9093
 3191TP3      O 9584   3.959   2.518   2.196 -0.4717 -0.2653 -0.1881
 3191TP3     H1 9585   3.885   2.457   2.204 -1.1011  0.4539 -0.3687
 3191TP3     H2 9586   3.926   2.588   2.140  0.8691 -0.7002 -1.6173
 3192TP3      O 9587   2.013   2.893   1.670 -0.8210  0.3116 -0.2272
 3192TP3     H1 9588   2.076   2.843   1.722 -2.1353 -0.8912  0.2732
 3192TP3     H2 9589   2.042   2.882   1.580 -0.2163 -0.0781  0.0118
 3193TP3      O 9590   3.118   3.478   2.004  0.5458  0.0641 -0.3769
 3193TP3     H1 9591   3.146   3.505   2.092  0.5387  1.0331 -0.6541
 3193TP3     H2 9592   3.161   3.394   1.989 -0.4985 -0.7710  1.0664
 3194TP3      O 9593   3.337   1.365   1.656 -0.1851  0.0107  0.2526
 3194TP3     H1 9594   3.300   1.426   1.719  1.1688 -0.2027  1.3087
 3194TP3     H2 9595   3.403   1.316   1.706 -0.8975 -2.0001 -0.6624
 3195TP3      O 9596   1.505   2.321   2.854  0.3483  0.3059 -0.4439
 3195TP3     H1 9597   1.498   2.272   2.936  2.8189  1.1906  0.3913
 3195TP3     H2 9598   1.438   2.389   2.860 -0.6269 -0.6677  0.0424
 3196TP3      O 9599   3.563   3.719   3.620 -0.2210 -0.2575  0.0886
 3196TP3     H1 9600   3.645   3.680   3.652 -0.8709 -1.7939 -0.0801
 3196TP3     H2 9601   3.591   3.774   3.547  0.8197  0.3691  0.9076
 3197TP3      O 9602   3.409   2.295   2.822 -0.6047  0.0957  0.6002
 3197TP3     H1 9603   3.359   2.323   2.745 -1.6311 -0.3760  1.0886
 3197TP3     H2 9604   3.459   2.219   2.791  0.3175  0.9228 -0.0507
 3198TP3      O 9605   3.464   3.411   3.041 -0.5796  0.4369  0.6501
 3198TP3     H1 9606   3.457   3.387   2.949  0.2928 -1.0221  0.9367
 3198TP3     H2 9607   3.531   3.352   3.077  0.8077  2.5154  1.7049
 3199TP3      O 9608   3.736   2.303   2.743  0.5675 -0.1884  0.6911
 3199TP3     H1 9609   3.822   2.262   2.747  0.4986 -0.8607 -2.0765
 3199TP3     H2 9610   3.689   2.267   2.818  1.7318 -2.3353  0.4878
 3200TP3      O 9611   3.121   2.243   3.436  0.6142 -0.4666  0.4665
 3200TP3     H1 9612   3.043   2.263   3.384  0.9950 -0.3307 -0.0607
 3200TP3     H2 9613   3.185   2.309   3.409  1.9894 -2.4496 -1.5019
 3201TP3      O 9614   3.306   3.752   3.530  0.2434 -0.2546 -0.2644
 3201TP3     H1 9615   3.260   3.816   3.585 -2.0178 -1.5812 -0.4781
 3201TP3     H2 9616   3.395   3.751   3.565  0.5136  3.2120 -0.4815
 3202TP3      O 9617   2.696   2.794   2.081  0.5585  0.2498  0.0151
 3202TP3     H1 9618   2.740   2.879   2.082  2.2497 -0.5814  0.6479
 3202TP3     H2 9619   2.699   2.766   1.990 -0.0329  0.8723 -0.1989
 3203TP3      O 9620   2.442   2.318   3.665  0.4740  0.4130 -0.0720
 3203TP3     H1 9621   2.374   2.327   3.732 -0.0422  0.1700 -0.5560
 3203TP3     H2 9622   2.523   2.302   3.715 -0.0068 -0.4179  0.4735
 3204TP3      O 9623   3.721   2.145   2.969  0.4435  0.4034 -0.7090
 3204TP3     H1 9624   3.783   2.101   3.027 -1.2502 -0.0937  0.8360
 3204TP3     H2 9625   3.655   2.182   3.028 -1.1513  0.2396 -2.2801
 3205TP3      O 9626   2.712   3.537   2.866  0.1733  0.7327  0.1274
 3205TP3     H1 9627   2.633   3.546   2.811 -0.8782 -0.5110  1.3579
 3205TP3     H2 9628   2.738   3.446   2.855 -0.3807  0.2959  2.0454
 3206TP3      O 9629   2.081   2.904   2.032  0.0120  0.3240 -0.5330
 3206TP3     H1 9630   1.987   2.895   2.050  0.5462 -2.5255  1.5260
 3206TP3     H2 9631   2.119   2.931   2.116  1.2596 -0.6804 -0.7538
 3207TP3      O 9632   2.384   2.637   3.258 -0.2764 -0.3502 -0.0159
 3207TP3     H1 9633   2.406   2.602   3.172 -1.4845  0.4709 -0.6846
 3207TP3     H2 9634   2.405   2.566   3.319 -0.4489 -1.3529 -1.1040
 3208TP3      O 9635   2.736   2.425   2.223  0.4671  0.5759 -0.0620
 3208TP3     H1 9636   2.819   2.445   2.179  1.1381 -0.0530  0.8801
 3208TP3     H2 9637   2.749   2.454   2.313 -0.8879  1.8295 -0.2361
 3209TP3      O 9638   3.557   3.009   2.243  0.1177  0.1613  0.1295
 3209TP3     H1 9639   3.646   3.038   2.222  0.4475 -1.1340 -0.3660
 3209TP3     H2 9640   3.566   2.916   2.264 -0.9678  0.2621  1.1628
 3210TP3      O 9641   2.104   3.058   3.614  1.0352  0.1117 -0.4736
 3210TP3     H1 9642   2.158   3.034   3.539  0.1506  0.6724 -1.3244
 3210TP3     H2 9643   2.014   3.057   3.580  0.6854  1.1671  0.3527
 3211TP3      O 9644   1.724   2.554   3.412  0.2110 -1.0737 -0.0754
 3211TP3     H1 9645   1.803   2.514   3.377  0.6097 -1.2132  0.9595
 3211TP3     H2 9646   1.752   2.597   3.493 -0.3804  0.5870 -0.7259
 3212TP3      O 9647   3.407   2.589   2.993 -0.6715  0.5055  0.5615
 3212TP3     H1 9648   3.367   2.505   3.013  2.0758 -1.3555 -1.1305
 3212TP3     H2 9649   3.495   2.584   3.030  0.0425  2.0550 -0.7793
 3213TP3      O 9650   3.379   2.405   3.495  0.4735  0.0978  0.7440
 3213TP3     H1 9651   3.410   2.314   3.489  1.3948  0.2881  2.1445
 3213TP3     H2 9652   3.352   2.427   3.406  0.6203 -1.4184  0.2983
 3214TP3      O 9653   1.557   1.837   3.774 -0.2167  0.7445  0.3792
 3214TP3     H1 9654   1.470   1.799   3.776  0.2714 -0.3968  2.1268
 3214TP3     H2 9655   1.555   1.900   3.702 -2.3715  0.5185  0.2051
 3215TP3      O 9656   2.571   2.724   2.715  0.6157 -0.3934 -0.2323
 3215TP3     H1 9657   2.515   2.649   2.695 -1.4909  0.9532  0.4051
 3215TP3     H2 9658   2.563   2.781   2.639  0.9787 -0.0846 -0.0416
 3216TP3      O 9659   3.170   2.208   2.091 -0.1062  0.1386 -0.1460
 3216TP3     H1 9660   3.131   2.127   2.060 -0.8103  0.4188 -0.0113
 3216TP3     H2 9661   3.096   2.269   2.100  0.2143  0.3952  1.0084
 3217TP3      O 9662   2.462   2.526   3.504 -0.5739  0.7198 -0.2532
 3217TP3     H1 9663   2.479   2.610   3.545 -0.5694  0.5056  0.1836
 3217TP3     H2 9664   2.450   2.465   3.577 -1.7615  0.5729 -0.5497
 3218TP3      O 9665   1.943   3.379   2.484  0.3594  0.3027  0.5954
 3218TP3     H1 9666   1.990   3.452   2.444  1.3478 -0.8937 -0.5440
 3218TP3     H2 9667   2.009   3.337   2.540 -0.0708  0.0412  0.9088
 3219TP3      O 9668   2.989   2.144   2.757  0.3658  0.4655  0.5573
 3219TP3     H1 9669   3.006   2.234   2.786  0.9367  0.4889  0.1634
 3219TP3     H2 9670   2.897   2.144   2.732  0.5272  1.1188 -0.0785
 3220TP3      O 9671   4.052   2.250   4.079 -0.3971  0.1959  0.6355
 3220TP3     H1 9672   3.988   2.196   4.032  1.0489  0.3260 -1.6438
 3220TP3     H2 9673   4.015   2.338   4.076  0.6375  0.6686 -2.4726
 3221TP3      O 9674   2.141   1.676   2.180 -0.4190  0.1192 -0.0955
 3221TP3     H1 9675   2.131   1.610   2.112  0.7419 -0.7020  0.5025
 3221TP3     H2 9676   2.171   1.627   2.257 -3.0344  0.7656  1.4893
 3222TP3      O 9677   4.128   2.008   3.181  0.0800  0.2323 -0.2373
 3222TP3     H1 9678   4.103   1.919   3.158 -3.9209  1.1763 -0.1771
 3222TP3     H2 9679   4.188   1.998   3.255  0.4408 -2.3857 -0.7939
 3223TP3      O 9680   3.090   2.375   3.698  0.2865  0.4794  0.8519
 3223TP3     H1 9681   3.096   2.471   3.701 -1.5352  0.6329  0.2581
 3223TP3     H2 9682   3.076   2.354   3.606 -1.2609 -0.1974  1.2101
 3224TP3      O 9683   2.402   2.754   3.800 -0.0413  0.1213  0.6124
 3224TP3     H1 9684   2.357   2.834   3.827  0.4547  0.6700 -0.1407
 3224TP3     H2 9685   2.466   2.784   3.735 -0.7568 -1.0583 -0.6803
 3225TP3      O 9686   3.803   2.854   3.475  0.2020 -1.0036 -0.0093
 3225TP3     H1 9687   3.866   2.903   3.422  1.8943 -0.5119  2.2902
 3225TP3     H2 9688   3.798   2.903   3.557 -1.0983 -2.5611  0.8909
 3226TP3      O 9689   2.641   3.517   3.411  0.2261 -0.2658  0.4711
 3226TP3     H1 9690   2.556   3.477   3.428 -0.9489  0.7733 -2.2982
 3226TP3     H2 9691   2.639   3.600   3.459 -0.9494  0.3872 -0.6473
 3227TP3      O 9692   3.396   2.396   2.022  0.1890 -0.2096 -0.3996
 3227TP3     H1 9693   3.349   2.313   2.009 -1.3309  0.3856  0.8660
 3227TP3     H2 9694   3.488   2.371   2.030 -0.3364 -1.8938  0.9060
 3228TP3      O 9695   3.524   3.610   1.986 -0.8936  0.4136  0.1457
 3228TP3     H1 9696   3.573   3.594   2.067  0.4792  0.0007 -0.7389
 3228TP3     H2 9697   3.540   3.532   1.933  1.8612  2.4511 -2.2716
 3229TP3      O 9698   2.739   3.301   2.474 -0.0557 -0.4415 -0.4764
 3229TP3     H1 9699   2.829   3.313   2.506  0.6799 -1.0707 -2.2053
 3229TP3     H2 9700   2.738   3.343   2.388 -0.8458 -2.0857 -1.3194
 3230TP3      O 9701   2.343   2.344   3.174 -0.5145  0.9257  0.3522
 3230TP3     H1 9702   2.333   2.416   3.112  0.2382 -0.2738 -1.2119
 3230TP3     H2 9703   2.420   2.297   3.145 -1.6141 -1.1857  0.6537
 3231TP3      O 9704   2.233   2.852   3.417  0.1329  0.1397 -0.0719
 3231TP3     H1 9705   2.287   2.778   3.390 -1.3529 -0.8458 -0.4619
 3231TP3     H2 9706   2.276   2.885   3.496  1.6813 -0.1448 -0.7606
 3232TP3      O 9707   3.205   1.578   4.071  0.2245 -0.3998 -0.1218
 3232TP3     H1 9708   3.141   1.615   4.010  0.3334 -1.5159 -0.9516
 3232TP3     H2 9709   3.167   1.591   4.157 -0.0297  1.0388 -0.4221
 3233TP3      O 9710   3.089   2.046   3.009 -0.2701  0.1173  0.0404
 3233TP3     H1 9711   3.147   1.973   2.986 -0.1422 -0.2319  1.3558
 3233TP3     H2 9712   3.054   2.076   2.926  3.2767  1.6418 -1.0827
 3234TP3      O 9713   2.411   3.408   2.331 -0.4556  0.1961  1.0297
 3234TP3     H1 9714   2.418   3.320   2.295 -0.8167  1.0458 -1.2404
 3234TP3     H2 9715   2.352   3.454   2.272  0.0765  2.0989  1.8983
 3235TP3      O 9716   1.931   3.640   4.167 -0.1535  0.2598  0.5563
 3235TP3     H1 9717   1.987   3.708   4.130  2.0840 -2.2421 -1.0847
 3235TP3     H2 9718   1.864   3.626   4.100  2.5965 -2.7102 -1.9257
 3236TP3      O 9719   2.267   2.758   2.628  0.6631  0.5944 -0.3270
 3236TP3     H1 9720   2.291   2.680   2.677  2.7446 -0.1518 -2.3691
 3236TP3     H2 9721   2.186   2.788   2.670  1.2363 -1.0673  2.2280
 3237TP3      O 9722   2.651   3.776   3.534 -0.7092 -0.2905 -0.2992
 3237TP3     H1 9723   2.574   3.744   3.581 -0.7385  0.4438  0.1777
 3237TP3     H2 9724   2.708   3.811   3.603 -2.2541  4.0746 -0.9139
 3238TP3      O 9725   2.194   2.202   2.915 -0.5769 -0.5537 -0.4005
 3238TP3     H1 9726   2.253   2.189   2.989 -2.5214 -1.2252  1.1134
 3238TP3     H2 9727   2.253   2.211   2.839  1.6397  2.6953  1.4472
 3239TP3      O 9728   2.218   2.581   3.890 -0.0606 -0.4419 -0.6414
 3239TP3     H1 9729   2.280   2.648   3.863 -0.3924 -0.5509 -1.7324
 3239TP3     H2 9730   2.190   2.607   3.977  0.1497  0.5931 -0.8736
 3240TP3      O 9731   3.591   3.395   3.643 -0.0025 -0.0844 -0.2403
 3240TP3     H1 9732   3.686   3.400   3.629 -0.1454  0.2521 -1.2292
 3240TP3     H2 9733   3.555   3.394   3.554 -0.9367  0.1248  0.1312
 3241TP3      O 9734   2.319   2.669   1.505  0.4999 -0.6283 -0.5718
 3241TP3     H1 9735   2.403   2.715   1.500  1.1596 -1.8980 -2.0596
 3241TP3     H2 9736   2.261   2.721   1.449  0.4259 -0.0437  0.0333
 3242TP3      O 9737   3.819   2.485   3.710  0.3360 -0.0522  0.1947
 3242TP3     H1 9738   3.780   2.404   3.678  3.0040 -0.7115 -1.8062
 3242TP3     H2 9739   3.761   2.554   3.678 -0.4370 -1.0465 -0.6162
 3243TP3      O 9740   2.434   3.682   3.704 -0.1261 -0.1934  1.0528
 3243TP3     H1 9741   2.368   3.729   3.755 -2.2094 -0.8305 -0.9106
 3243TP3     H2 9742   2.391   3.600   3.680  0.9952 -0.1783 -1.1866
 3244TP3      O 9743   3.102   2.175   4.583  0.6772  0.1129  0.5756
 3244TP3     H1 9744   3.190   2.167   4.618  0.8073  0.1284  0.2538
 3244TP3     H2 9745   3.104   2.127   4.501 -0.5492 -2.8935  2.1609
 3245TP3      O 9746   3.083   2.995   3.454 -0.2030  0.7766  0.0169
 3245TP3     H1 9747   3.176   2.991   3.431  0.1767  0.4902  1.4700
 3245TP3     H2 9748   3.071   3.082   3.490 -0.2596  0.4809  0.7275
 3246TP3      O 9749   2.206   2.422   1.449 -0.0945  0.3799 -0.8439
 3246TP3     H1 9750   2.224   2.515   1.465  0.9476  0.1090 -0.2653
 3246TP3     H2 9751   2.148   2.397   1.521 -0.0185  0.4909 -0.7413
 3247TP3      O 9752   1.657   2.751   3.024 -0.3285 -0.2524  0.0573
 3247TP3     H1 9753   1.600   2.701   2.964  0.9686 -1.0981 -0.5110
 3247TP3     H2 9754   1.716   2.799   2.967  0.2466 -0.2481  0.6479
 3248TP3      O 9755   3.047   2.940   1.944 -0.6005 -0.0229 -0.0126
 3248TP3     H1 9756   3.028   2.999   1.871 -2.6294 -0.8311 -0.1969
 3248TP3     H2 9757   3.079   2.860   1.901 -2.1345 -0.6266 -0.0781
 3249TP3      O 9758   4.185   2.936   2.433  0.6535 -0.1388  0.1120
 3249TP3     H1 9759   4.117   2.945   2.500 -0.8610  0.5054 -1.4407
 3249TP3     H2 9760   4.137   2.914   2.353  2.5412 -2.9467 -0.4220
 3250TP3      O 9761   3.007   4.185   3.452  0.7163 -0.5558 -0.3610
 3250TP3     H1 9762   2.924   4.171   3.498  1.1225  0.3250  0.6951
 3250TP3     H2 9763   2.986   4.247   3.383  1.0392  2.4123  1.9770
 3251TP3      O 9764   1.953   3.604   3.067 -0.1940 -0.2759 -0.0893
 3251TP3     H1 9765   1.970   3.629   3.158 -0.1924  1.5168 -0.5396
 3251TP3     H2 9766   1.956   3.687   3.018  0.9538 -1.3061 -1.9069
 3252TP3      O 9767   3.605   3.141   3.792 -0.4922 -0.0721  0.3807
 3252TP3     H1 9768   3.541   3.073   3.769 -0.8748  0.3117  0.3002
 3252TP3     H2 9769   3.583   3.215   3.736  1.8925 -0.9014 -1.8943
 3253TP3      O 9770   4.111   2.037   2.372 -0.0646  0.4937  0.1176
 3253TP3     H1 9771   4.059   1.962   2.343 -0.0710  0.7748 -0.6127
 3253TP3     H2 9772   4.180   1.998   2.426  1.5377 -0.3520 -2.3795
 3254TP3      O 9773   3.211   3.499   2.241 -0.2384  0.3394  0.2536
 3254TP3     H1 9774   3.186   3.407   2.253  2.1948 -0.5532 -0.8097
 3254TP3     H2 9775   3.296   3.506   2.284 -0.5685  2.2274  0.6638
 3255TP3      O 9776   1.871   3.153   3.789  0.3970  0.3909  0.1467
 3255TP3     H1 9777   1.859   3.078   3.731 -0.4533  0.6759 -0.0605
 3255TP3     H2 9778   1.904   3.222   3.732 -0.5722  0.7131 -0.0481
 3256TP3      O 9779   3.085   2.680   3.226 -0.1938 -0.4865 -0.5417
 3256TP3     H1 9780   3.065   2.670   3.133 -0.0141  0.1183 -0.6520
 3256TP3     H2 9781   3.012   2.730   3.261  0.1872  0.0888 -0.5537
 3257TP3      O 9782   2.381   3.018   2.595 -0.9751 -0.7873  0.3060
 3257TP3     H1 9783   2.346   3.072   2.666 -0.1062  1.9587 -1.2390
 3257TP3     H2 9784   2.353   2.929   2.617 -1.8550  0.1400  3.3624
 3258TP3      O 9785   2.190   3.307   2.577 -0.0063  0.8444 -0.0406
 3258TP3     H1 9786   2.230   3.352   2.652 -0.2137 -0.1511  0.6924
 3258TP3     H2 9787   2.244   3.332   2.502  0.3481  1.6724  0.4837
 3259TP3      O 9788   2.742   4.152   2.782  0.7939 -0.6487 -0.4083
 3259TP3     H1 9789   2.810   4.137   2.717 -1.2641 -3.4313 -2.1583
 3259TP3     H2 9790   2.694   4.228   2.750  1.2196 -0.5675 -0.8628
 3260TP3      O 9791   3.218   2.366   3.004  0.3197  0.2538 -0.1653
 3260TP3     H1 9792   3.134   2.338   2.968 -0.2065 -0.4981  1.5352
 3260TP3     H2 9793   3.283   2.326   2.947 -0.4188 -3.3599  1.2279
 3261TP3      O 9794   2.481   2.202   2.884 -0.1867  0.2619 -0.0461
 3261TP3     H1 9795   2.514   2.112   2.885  1.4390  0.7859 -0.9768
 3261TP3     H2 9796   2.546   2.251   2.934  0.3014  1.2764 -1.5897
 3262TP3      O 9797   3.835   3.076   2.224  0.1171 -0.1843 -0.2898
 3262TP3     H1 9798   3.843   3.019   2.301  0.2088  0.4129  0.1556
 3262TP3     H2 9799   3.906   3.048   2.166  1.4906  0.8188  0.8265
 3263TP3      O 9800   2.953   2.668   3.000  0.0640  0.3322  0.3322
 3263TP3     H1 9801   2.992   2.603   2.942 -1.4195 -1.3975  1.1894
 3263TP3     H2 9802   2.961   2.750   2.952  3.0305 -0.1992 -0.3256
 3264TP3      O 9803   2.968   2.747   2.130  0.1063  0.2425 -0.1536
 3264TP3     H1 9804   2.873   2.761   2.127 -0.0468 -0.7364 -0.2165
 3264TP3     H2 9805   3.000   2.785   2.049 -0.3921 -0.4706 -0.6980
 3265TP3      O 9806   3.346   3.776   1.841  0.6941 -0.1091  0.3323
 3265TP3     H1 9807   3.398   3.811   1.769 -0.7462 -2.3194 -1.9707
 3265TP3     H2 9808   3.402   3.710   1.881  0.5721 -0.8070 -0.5994
 3266TP3      O 9809   1.648   2.846   3.864 -0.3531  0.0341  0.1443
 3266TP3     H1 9810   1.617   2.933   3.887 -0.0964  0.7600 -2.0396
 3266TP3     H2 9811   1.568   2.795   3.849 -0.4963 -0.0707  1.1491
 3267TP3      O 9812   2.487   3.327   4.186 -0.0447  0.1895  0.4308
 3267TP3     H1 9813   2.502   3.373   4.103 -1.7979  1.6061  0.8088
 3267TP3     H2 9814   2.465   3.397   4.248 -2.7366 -1.0700  1.0801
 3268TP3      O 9815   3.100   1.762   3.034 -0.0599  0.6111 -0.1237
 3268TP3     H1 9816   3.053   1.691   3.077 -0.4402  1.2260  0.5033
 3268TP3     H2 9817   3.043   1.789   2.962 -0.2233  0.7154  0.0438
 3269TP3      O 9818   3.244   2.571   2.167 -0.1712  0.5484  0.0545
 3269TP3     H1 9819   3.270   2.641   2.106 -0.7116  0.8059  0.1194
 3269TP3     H2 9820   3.303   2.499   2.145 -0.0057  0.8166 -0.4184
 3270TP3      O 9821   2.075   3.022   2.532 -0.0355 -0.7234  0.3854
 3270TP3     H1 9822   2.114   3.107   2.512  0.2273 -1.2650 -1.5764
 3270TP3     H2 9823   2.019   3.003   2.457 -0.0829 -2.2817  0.7829
 3271TP3      O 9824   4.053   1.984   3.554 -0.3416 -0.0837 -0.3473
 3271TP3     H1 9825   4.107   1.965   3.631 -1.3653 -0.1542  0.3740
 3271TP3     H2 9826   4.030   2.076   3.563  0.5213  0.2275 -1.2178
 3272TP3      O 9827   2.098   3.614   2.202  0.0845 -0.0181 -0.2758
 3272TP3     H1 9828   2.186   3.650   2.197  0.9783 -1.9210  0.5254
 3272TP3     H2 9829   2.074   3.621   2.295 -0.1593 -0.4541 -0.2997
 3273TP3      O 9830   2.419   4.321   3.816  0.0548 -0.5201  0.0350
 3273TP3     H1 9831   2.420   4.405   3.861  0.3413 -0.0769 -0.7760
 3273TP3     H2 9832   2.371   4.263   3.875 -3.3486  1.0706 -0.8671
 3274TP3      O 9833   3.316   2.897   3.974 -0.2192 -0.3794  0.4242
 3274TP3     H1 9834   3.315   2.993   3.976 -0.0192 -0.3207 -1.2571
 3274TP3     H2 9835   3.232   2.872   4.012  0.5153  0.3778  2.7004
 3275TP3      O 9836   1.876   2.557   1.866 -0.8390 -0.1542  0.1067
 3275TP3     H1 9837   1.785   2.549   1.837 -1.0706 -0.6699  0.9212
 3275TP3     H2 9838   1.885   2.648   1.894 -1.7760 -0.6110  2.0903
 3276TP3      O 9839   2.375   1.787   2.239 -0.3224  0.1196  0.3737
 3276TP3     H1 9840   2.394   1.793   2.333 -0.6972  0.3086  0.4428
 3276TP3     H2 9841   2.312   1.714   2.233  1.2684 -1.2754  0.0100
 3277TP3      O 9842   3.787   3.615   1.878 -0.0830  0.9438 -0.0335
 3277TP3     H1 9843   3.700   3.607   1.839  0.2794 -1.6087 -0.4744
 3277TP3     H2 9844   3.845   3.567   1.818  2.0166  3.9994 -0.6964
 3278TP3      O 9845   2.999   2.109   3.699 -0.4562 -0.8260 -0.3015
 3278TP3     H1 9846   3.066   2.072   3.757  0.0490  0.2199 -0.1949
 3278TP3     H2 9847   3.039   2.188   3.664 -0.9030 -1.2297 -1.7871
 3279TP3      O 9848   3.661   3.850   3.398  0.0404 -0.3333 -0.3716
 3279TP3     H1 9849   3.707   3.888   3.473  0.7416 -0.1174 -0.9016
 3279TP3     H2 9850   3.730   3.812   3.344 -0.5026 -0.8597 -0.7033
 3280TP3      O 9851   3.171   2.304   3.936 -0.1449 -0.0897 -0.3227
 3280TP3     H1 9852   3.132   2.363   4.001 -0.9324 -0.3341 -0.5612
 3280TP3     H2 9853   3.149   2.344   3.852  0.8338  0.2006 -0.4537
 3281TP3      O 9854   3.338   2.790   3.258  0.6739 -0.3039 -0.2173
 3281TP3     H1 9855   3.251   2.767   3.290  0.6457  1.9718  1.5557
 3281TP3     H2 9856   3.382   2.706   3.245 -1.8950 -1.5416 -1.7060
 3282TP3      O 9857   1.111   1.946   3.372 -0.4325  0.1506  0.3472
 3282TP3     H1 9858   1.025   1.905   3.358 -0.7130  0.8081  0.1346
 3282TP3     H2 9859   1.172   1.872   3.374 -0.9963 -0.3212  0.4754
 3283TP3      O 9860   3.828   2.792   2.805 -0.2759  0.2519 -0.4365
 3283TP3     H1 9861   3.894   2.844   2.759  0.7505 -0.4742  0.1734
 3283TP3     H2 9862   3.850   2.701   2.784  0.1795 -0.1033  1.4070
 3284TP3      O 9863   2.286   2.341   2.010 -0.0429  0.1856 -0.3222
 3284TP3     H1 9864   2.368   2.324   2.057 -0.5744 -0.3813  0.4391
 3284TP3     H2 9865   2.305   2.318   1.919  1.2153  1.9597 -0.5669
 3285TP3      O 9866   2.481   2.985   2.308  0.6115 -0.3636  0.6815
 3285TP3     H1 9867   2.485   2.994   2.404 -0.1729 -0.5700  0.7421
 3285TP3     H2 9868   2.561   3.027   2.277  0.8985 -0.3311  1.4325
 3286TP3      O 9869   4.225   2.638   3.420 -0.2770  0.5140 -0.3170
 3286TP3     H1 9870   4.134   2.657   3.397 -0.5313  1.1454  1.0910
 3286TP3     H2 9871   4.219   2.581   3.497  0.5324 -1.0542 -1.3628
 3287TP3      O 9872   4.125   2.860   3.870  0.6857 -0.6701 -0.1562
 3287TP3     H1 9873   4.175   2.907   3.937 -1.4578  0.5169  0.7251
 3287TP3     H2 9874   4.133   2.768   3.895  1.6197 -0.4255  0.5062
 3288TP3      O 9875   2.735   3.016   1.950 -1.0687 -0.6369 -0.2403
 3288TP3     H1 9876   2.673   3.062   1.893 -0.6242 -1.7535 -1.6766
 3288TP3     H2 9877   2.813   3.005   1.896 -0.4600 -1.3199  0.7532
 3289TP3      O 9878   2.448   3.197   2.833 -0.2071  0.6279  0.3964
 3289TP3     H1 9879   2.486   3.277   2.797 -0.2328 -0.3091 -1.8636
 3289TP3     H2 9880   2.521   3.135   2.836  0.0863  0.9469  3.1772
 3290TP3      O 9881   2.309   3.070   1.938 -0.0143 -0.1906  0.5774
 3290TP3     H1 9882   2.382   3.033   1.987  1.6277 -1.8411 -2.7710
 3290TP3     H2 9883   2.242   3.002   1.939  0.0830 -0.2883  0.3767
 3291TP3      O 9884   3.379   2.902   2.606  0.2742  0.0634 -0.6113
 3291TP3     H1 9885   3.422   2.817   2.616 -0.0262 -0.1614 -1.2100
 3291TP3     H2 9886   3.450   2.966   2.611  0.2510  0.0122  2.6715
 3292TP3      O 9887   1.931   3.911   3.826  1.0501 -0.4716 -0.2650
 3292TP3     H1 9888   1.973   3.849   3.885  0.1008 -0.7361  0.1599
 3292TP3     H2 9889   2.001   3.969   3.798  1.6117 -0.6306  0.7587
 3293TP3      O 9890   1.940   2.916   3.112  0.4263  0.2406  0.2797
 3293TP3     H1 9891   1.852   2.944   3.088  0.7268  1.4356  0.4662
 3293TP3     H2 9892   1.955   2.837   3.060 -0.6045  0.2398 -0.0467
 3294TP3      O 9893   2.115   3.852   3.312  0.0617  0.3155  0.3188
 3294TP3     H1 9894   2.119   3.943   3.283 -0.1068  0.7584  1.6080
 3294TP3     H2 9895   2.149   3.802   3.238 -1.9053  1.2121 -1.3082
 3295TP3      O 9896   2.705   1.818   3.859  0.5163 -0.9565  0.3163
 3295TP3     H1 9897   2.641   1.881   3.892  1.4868 -0.6959  1.8175
 3295TP3     H2 9898   2.688   1.813   3.765 -0.1972  0.8159  0.3193
 3296TP3      O 9899   1.747   1.920   2.364 -0.5581 -0.6901  0.6342
 3296TP3     H1 9900   1.657   1.953   2.363 -0.8646 -1.4877  1.0107
 3296TP3     H2 9901   1.762   1.895   2.455 -0.0215 -0.7500  0.5313
 3297TP3      O 9902   3.711   3.189   3.125 -0.1972 -0.1468 -0.4471
 3297TP3     H1 9903   3.792   3.202   3.175  0.5901  0.6468 -1.8490
 3297TP3     H2 9904   3.741   3.180   3.034 -1.6155 -1.0348 -0.8466
 3298TP3      O 9905   1.433   3.257   3.703 -0.4787 -0.2545  0.3385
 3298TP3     H1 9906   1.371   3.256   3.630  0.6793 -0.3446 -0.6753
 3298TP3     H2 9907   1.416   3.340   3.747 -1.1202 -0.1502 -0.0859
 3299TP3      O 9908   3.169   3.621   2.819  0.4879 -0.6136  0.2053
 3299TP3     H1 9909   3.081   3.597   2.789  0.8347 -3.1690  1.0151
 3299TP3     H2 9910   3.226   3.556   2.778  1.8124  0.1160  0.8500
 3300TP3      O 9911   2.822   1.847   3.035 -0.2134 -0.1280  0.1446
 3300TP3     H1 9912   2.826   1.874   2.943 -0.8292  0.8036  0.3748
 3300TP3     H2 9913   2.898   1.889   3.075  1.3763 -2.3426 -0.3420
 3301TP3      O 9914   3.362   1.685   2.894 -0.3663  0.4724 -0.0115
 3301TP3     H1 9915   3.374   1.712   2.803 -0.4056 -2.4442 -0.9879
 3301TP3     H2 9916   3.269   1.698   2.911 -0.4799  0.4618 -0.6004
 3302TP3      O 9917   2.110   2.852   1.395 -0.3875 -0.2880  0.0199
 3302TP3     H1 9918   2.057   2.821   1.322 -1.0805 -0.0568  0.4065
 3302TP3     H2 9919   2.160   2.925   1.359 -0.7267 -0.1712 -0.2184
 3303TP3      O 9920   1.847   3.771   2.610 -0.0939  0.1228 -0.5922
 3303TP3     H1 9921   1.802   3.691   2.582  0.6819 -0.6183  0.2101
 3303TP3     H2 9922   1.787   3.842   2.587 -1.5493 -0.8151  0.2016
 3304TP3      O 9923   3.774   1.683   1.919  0.0205 -0.0754  0.0306
 3304TP3     H1 9924   3.720   1.653   1.846 -0.6773 -0.3995  0.6688
 3304TP3     H2 9925   3.792   1.775   1.899  2.0031 -0.7837 -1.8417
 3305TP3      O 9926   4.099   2.263   3.051  0.3882  0.2783 -0.4653
 3305TP3     H1 9927   4.070   2.255   2.960 -1.6146  0.1423  0.1403
 3305TP3     H2 9928   4.077   2.180   3.091  1.0328  0.4305  0.2324
 3306TP3      O 9929   3.155   1.988   2.615 -0.0909  0.7598  0.1061
 3306TP3     H1 9930   3.117   1.989   2.527 -0.0986  1.2413  0.1120
 3306TP3     H2 9931   3.127   2.071   2.655  2.4342  2.0370 -0.5457
 3307TP3      O 9932   1.565   2.623   2.796  0.0806 -0.2902 -0.0164
 3307TP3     H1 9933   1.624   2.578   2.736 -2.3015 -2.1697 -1.1567
 3307TP3     H2 9934   1.504   2.669   2.739 -1.1557 -0.6275  0.9825
 3308TP3      O 9935   2.728   3.168   1.546  0.1110  0.1385  0.0338
 3308TP3     H1 9936   2.816   3.190   1.517 -0.0577 -1.9555 -2.3892
 3308TP3     H2 9937   2.671   3.228   1.495  0.0435 -0.0682 -0.1360
 3309TP3      O 9938   2.656   1.864   3.601  0.3284 -0.6506  0.0472
 3309TP3     H1 9939   2.572   1.871   3.557 -0.6263 -1.2317  1.7088
 3309TP3     H2 9940   2.670   1.951   3.639  2.1571  0.5512 -2.9449
 3310TP3      O 9941   2.602   2.062   3.936 -0.4248  0.3666 -0.1516
 3310TP3     H1 9942   2.652   2.078   3.856 -2.3265  0.4030 -1.4161
 3310TP3     H2 9943   2.511   2.065   3.907 -1.1383 -0.9071  1.7964
 3311TP3      O 9944   1.287   2.792   4.051 -0.5746 -0.3465 -0.1509
 3311TP3     H1 9945   1.256   2.726   3.989  0.6681  0.5706 -1.8299
 3311TP3     H2 9946   1.272   2.875   4.007  3.8813  0.2132 -1.1018
 3312TP3      O 9947   2.929   3.899   5.411  0.0565 -1.1305 -0.8435
 3312TP3     H1 9948   2.970   3.821   5.449  0.0194 -0.0841  1.4748
 3312TP3     H2 9949   2.994   3.968   5.423 -1.5291  0.1245  1.1104
 3313TP3      O 9950   3.738   3.256   4.807  0.0451 -0.3287 -1.0081
 3313TP3     H1 9951   3.646   3.282   4.806 -0.3873 -1.6587  0.4178
 3313TP3     H2 9952   3.773   3.292   4.888  0.9937  0.7423 -1.8607
 3314TP3      O 9953   4.781   2.760   4.116 -0.9349  0.4874  0.1201
 3314TP3     H1 9954   4.691   2.747   4.084 -1.6618  2.3978  1.1744
 3314TP3     H2 9955   4.815   2.672   4.131 -2.6320 -0.2834 -0.3415
 3315TP3      O 9956   3.513   2.482   3.997  0.6178 -0.9226  0.8565
 3315TP3     H1 9957   3.480   2.412   3.941 -2.5581  0.2170  1.0725
 3315TP3     H2 9958   3.530   2.439   4.081  1.7325 -1.9606  0.1227
 3316TP3      O 9959   3.307   3.342   4.205 -0.2015  0.3499 -0.0417
 3316TP3     H1 9960   3.264   3.353   4.121 -0.3894 -2.5147 -0.4135
 3316TP3     H2 9961   3.396   3.376   4.192 -1.0318  2.5003 -0.4869
 3317TP3      O 9962   2.332   2.449   5.041 -0.3260  0.1785 -0.1095
 3317TP3     H1 9963   2.272   2.376   5.024 -0.2460  0.1063 -0.0849
 3317TP3     H2 9964   2.293   2.523   4.997 -1.2370  0.4948  1.1557
 3318TP3      O 9965   2.812   3.742   4.542  0.0890 -0.2461  0.6897
 3318TP3     H1 9966   2.807   3.658   4.586 -1.7483 -0.4647  0.1699
 3318TP3     H2 9967   2.814   3.806   4.613  0.4433 -0.6901  1.0835
 3319TP3      O 9968   1.650   3.968   4.870  0.4097 -0.8115 -0.4922
 3319TP3     H1 9969   1.701   4.038   4.829  0.7911 -1.2925 -0.8615
 3319TP3     H2 9970   1.579   3.951   4.807 -0.4506  0.1263  0.2036
 3320TP3      O 9971   1.698   3.580   4.334 -0.4357 -0.1978  0.4585
 3320TP3     H1 9972   1.781   3.623   4.317 -0.0608 -0.5283  1.3882
 3320TP3     H2 9973   1.637   3.652   4.351 -0.3828  0.0515 -0.3554
 3321TP3      O 9974   3.629   2.962   4.966  0.0853  0.3159  0.6093
 3321TP3     H1 9975   3.540   2.950   4.999 -0.2841 -0.1548 -0.4954
 3321TP3     H2 9976   3.617   3.007   4.882  0.9097  0.5534  0.6168
 3322TP3      O 9977   3.351   2.906   5.056 -0.0269 -0.1212 -0.1370
 3322TP3     H1 9978   3.341   2.996   5.025  0.7320  0.1085  0.2762
 3322TP3     H2 9979   3.275   2.860   5.021  1.0303 -0.0019 -2.7615
 3323TP3      O 9980   3.566   3.030   4.683 -0.6996  0.6570 -0.3528
 3323TP3     H1 9981   3.545   3.123   4.689  1.0383  1.3236 -3.0238
 3323TP3     H2 9982   3.541   3.005   4.594  0.1493 -1.0820 -0.1542
 3324TP3      O 9983   1.986   3.421   4.531  0.5311 -0.0220 -0.1578
 3324TP3     H1 9984   1.922   3.487   4.559  1.3077  1.4601 -1.7131
 3324TP3     H2 9985   2.071   3.464   4.541  1.3148 -1.7809  1.4017
 3325TP3      O 9986   3.475   3.225   5.626  0.7249 -0.1722 -0.4832
 3325TP3     H1 9987   3.505   3.305   5.669 -1.4662 -0.5511  1.9523
 3325TP3     H2 9988   3.461   3.163   5.697 -2.5720 -1.0401 -1.7024
 3326TP3      O 9989   1.861   3.564   3.853  0.0125 -0.1247 -0.6469
 3326TP3     H1 9990   1.816   3.589   3.772  0.4062  2.6429 -0.1338
 3326TP3     H2 9991   1.949   3.600   3.843  0.1200  0.1381  0.9217
 3327TP3      O 9992   2.224   2.956   3.849  0.1287  0.0127  0.0975
 3327TP3     H1 9993   2.203   2.967   3.756  1.0559  0.0369 -0.1193
 3327TP3     H2 9994   2.150   2.995   3.896 -0.4592 -0.2105 -0.6281
 3328TP3      O 9995   3.357   4.609   5.793 -0.6214  0.0188 -0.6046
 3328TP3     H1 9996   3.322   4.689   5.754 -1.5447 -1.4664 -3.0952
 3328TP3     H2 9997   3.301   4.539   5.758  1.0610 -1.8784  0.2488
 3329TP3      O 9998   1.444   3.637   4.416 -0.7020 -0.0767  0.0112
 3329TP3     H1 9999   1.374   3.579   4.386 -0.4653  1.2785 -3.7473
 3329TP3     H210000   1.426   3.721   4.373  2.5374  0.6565 -0.1801
 3330TP3      O10001   3.717   1.701   5.292  0.2506  0.4902 -0.5796
 3330TP3     H110002   3.781   1.705   5.221  0.0208 -1.4327 -0.9612
 3330TP3     H210003   3.767   1.721   5.371  1.5476 -1.5668 -0.7860
 3331TP3      O10004   2.190   1.574   4.796 -0.1272  0.0126 -0.5194
 3331TP3     H110005   2.121   1.522   4.836 -0.0418  0.1957 -0.1242
 3331TP3     H210006   2.272   1.530   4.822 -0.0485  0.4173 -0.0590
 3332TP3      O10007   3.927   3.684   4.131  0.4712  0.0182 -0.2115
 3332TP3     H110008   3.837   3.716   4.144  0.5554  0.8991 -1.6416
 3332TP3     H210009   3.920   3.626   4.055  0.8970 -0.9581  0.4743
 3333TP3      O10010   1.975   3.799   4.401  0.2225  0.6818 -0.3428
 3333TP3     H110011   2.015   3.878   4.366 -1.5055  0.9657 -1.8094
 3333TP3     H210012   1.957   3.745   4.324 -0.9722  0.0059  0.3748
 3334TP3      O10013   4.021   2.182   4.426 -0.1112 -0.0275  0.4331
 3334TP3     H110014   4.037   2.088   4.423  0.3593 -0.0371  2.0956
 3334TP3     H210015   4.030   2.211   4.336  1.1470 -1.3552  0.0918
 3335TP3      O10016   2.903   2.836   3.381  0.3468  0.0494 -0.1254
 3335TP3     H110017   2.980   2.883   3.414  0.6179 -0.2249 -0.3648
 3335TP3     H210018   2.829   2.882   3.420  0.6667 -0.5083  1.1912
 3336TP3      O10019   1.153   3.869   5.242  0.0955 -0.0428 -0.0204
 3336TP3     H110020   1.134   3.810   5.315  0.6991  1.4322  1.4021
 3336TP3     H210021   1.225   3.828   5.196 -0.3495 -1.0459  0.1505
 3337TP3      O10022   2.295   3.685   5.273 -0.1160 -0.4373  0.5079
 3337TP3     H110023   2.335   3.655   5.192 -1.9768 -0.4371 -0.4625
 3337TP3     H210024   2.209   3.719   5.247 -0.0161  1.3674  2.2047
 3338TP3      O10025   3.121   2.960   4.865  0.7702  0.0233 -0.2525
 3338TP3     H110026   3.072   3.018   4.924 -0.4474 -0.7565 -0.4706
 3338TP3     H210027   3.098   2.872   4.893 -1.5529 -0.4326 -3.1910
 3339TP3      O10028   3.335   2.685   4.278 -0.0339 -0.3312 -0.3391
 3339TP3     H110029   3.328   2.709   4.370 -0.6148 -0.1721 -0.4228
 3339TP3     H210030   3.412   2.732   4.247  0.1847 -0.4116  0.0677
 3340TP3      O10031   2.167   2.996   5.215 -0.7434 -0.0932  0.0045
 3340TP3     H110032   2.131   3.082   5.235 -1.3479 -0.5277  0.8841
 3340TP3     H210033   2.210   3.007   5.130 -2.7627  0.5307 -1.0165
 3341TP3      O10034   3.621   2.657   3.432 -0.0030 -0.0453  0.5163
 3341TP3     H110035   3.619   2.595   3.505  2.4000 -0.3803  0.3792
 3341TP3     H210036   3.681   2.726   3.461  0.3771  0.2210 -0.8091
 3342TP3      O10037   3.922   3.844   4.541 -0.4498  0.0120  0.4195
 3342TP3     H110038   3.831   3.850   4.571 -0.4317 -1.5209  0.8699
 3342TP3     H210039   3.942   3.751   4.544  1.2373  0.3457  0.6140
 3343TP3      O10040   2.465   2.236   5.438 -0.0778 -0.5324 -0.7898
 3343TP3     H110041   2.373   2.241   5.464  0.2701  1.2869  0.2790
 3343TP3     H210042   2.483   2.321   5.396  1.1028 -0.8537 -0.9748
 3344TP3      O10043   3.456   4.021   4.280  0.3736 -0.2252  0.3351
 3344TP3     H110044   3.538   4.011   4.330  0.2014 -2.8623  0.2407
 3344TP3     H210045   3.477   3.985   4.194 -0.6120  0.0332 -0.0189
 3345TP3      O10046   3.067   3.787   4.110 -0.1571  0.0541  0.4735
 3345TP3     H110047   3.144   3.780   4.054 -0.3126 -0.5362  0.3329
 3345TP3     H210048   3.007   3.844   4.061  0.1966  0.5435  0.5991
 3346TP3      O10049   1.675   1.816   4.044 -0.1575 -0.1685  0.5598
 3346TP3     H110050   1.580   1.818   4.060 -0.2242  0.6714  0.1276
 3346TP3     H210051   1.684   1.842   3.952  0.5433  0.6030  0.8428
 3347TP3      O10052   2.851   2.427   5.086  0.2281 -1.0080 -0.6192
 3347TP3     H110053   2.823   2.394   5.171 -0.5833  1.9080  0.3469
 3347TP3     H210054   2.772   2.424   5.031 -1.0579  2.8074  0.7012
 3348TP3      O10055   3.589   3.780   4.093 -0.4059  0.4363 -0.2781
 3348TP3     H110056   3.629   3.865   4.074  0.3530  0.1188 -0.1291
 3348TP3     H210057   3.635   3.749   4.171  2.0590 -1.8159 -2.4438
 3349TP3      O10058   2.883   3.060   4.256  0.1215 -0.0362  0.3543
 3349TP3     H110059   2.814   2.994   4.257 -1.5121  1.6093  1.6318
 3349TP3     H210060   2.838   3.144   4.264  2.2039  1.2086  0.0560
 3350TP3      O10061   3.582   1.981   5.450 -0.1699  0.0358  0.2873
 3350TP3     H110062   3.487   1.974   5.438 -0.3980 -0.7316  2.1549
 3350TP3     H210063   3.600   1.926   5.527  1.8180  0.0416 -0.1249
 3351TP3      O10064   3.131   2.707   4.986  0.1171 -0.3673  0.0787
 3351TP3     H110065   3.139   2.692   5.080  1.8977 -0.8091 -0.1102
 3351TP3     H210066   3.150   2.623   4.946  2.8357  0.5303 -0.7512
 3352TP3      O10067   2.824   3.645   5.612 -0.7333 -0.2394 -0.3203
 3352TP3     H110068   2.875   3.631   5.532  2.7405  3.6630  0.8428
 3352TP3     H210069   2.751   3.699   5.584 -0.0182  0.3984 -1.0241
 3353TP3      O10070   3.172   2.474   4.511  0.1097  0.3804  0.6370
 3353TP3     H110071   3.077   2.463   4.512 -0.0920  1.4944 -0.9578
 3353TP3     H210072   3.185   2.567   4.529  0.6114  1.0589 -2.6120
 3354TP3      O10073   1.273   2.040   3.888  0.2248 -0.3797  0.5965
 3354TP3     H110074   1.310   2.054   3.800  0.0494 -0.6792  0.4738
 3354TP3     H210075   1.183   2.072   3.882 -0.1443 -1.4314  0.3443
 3355TP3      O10076   2.433   4.466   5.913 -0.4181 -0.6320  0.7339
 3355TP3     H110077   2.369   4.411   5.958  0.4403 -0.3545  2.3869
 3355TP3     H210078   2.407   4.556   5.935  0.1295 -0.4989  0.8512
 3356TP3      O10079   2.825   2.359   4.013  0.3601  0.0897 -0.3889
 3356TP3     H110080   2.790   2.320   4.093  0.9735  0.0143 -0.1539
 3356TP3     H210081   2.914   2.325   4.006  0.4612  0.4392 -0.8720
 3357TP3      O10082   4.005   2.903   5.440  0.6685  0.5668  0.1342
 3357TP3     H110083   4.073   2.943   5.386 -0.1856  2.0663  0.1158
 3357TP3     H210084   3.926   2.911   5.387  0.5345 -1.7541 -0.1288
 3358TP3      O10085   3.123   2.113   4.323  0.3934  0.5441  0.2041
 3358TP3     H110086   3.207   2.160   4.321  1.4729 -1.3063 -1.1082
 3358TP3     H210087   3.086   2.125   4.236 -0.0691  0.2915  0.3629
 3359TP3      O10088   2.524   2.573   4.687 -0.6183 -0.0179 -0.1245
 3359TP3     H110089   2.545   2.661   4.719 -0.4964  0.1072 -0.5469
 3359TP3     H210090   2.430   2.576   4.669 -0.5906  0.0644 -0.2569
 3360TP3      O10091   2.246   3.135   4.133  0.0384 -0.4334 -0.1376
 3360TP3     H110092   2.234   3.159   4.041 -1.5453  0.6204  0.3118
 3360TP3     H210093   2.304   3.203   4.168 -0.1242 -0.2898 -0.1437
 3361TP3      O10094   2.195   3.324   5.216 -0.3726  0.0178  0.1537
 3361TP3     H110095   2.278   3.282   5.194  0.8539  2.2976  0.0684
 3361TP3     H210096   2.148   3.329   5.133  0.0705  0.0276 -0.1028
 3362TP3      O10097   3.754   2.761   4.377  0.3325 -0.1193 -0.3125
 3362TP3     H110098   3.841   2.754   4.337  0.2761 -0.1263 -0.4311
 3362TP3     H210099   3.723   2.671   4.382  1.7693 -0.6090  2.8741
 3363TP3      O10100   3.156   3.520   5.726  0.4215 -0.2164 -0.8115
 3363TP3     H110101   3.117   3.607   5.739  1.2308  0.2451 -1.4275
 3363TP3     H210102   3.093   3.474   5.670  0.4505  0.3055 -1.2774
 3364TP3      O10103   2.383   2.873   4.129 -0.3213 -0.5759  0.0932
 3364TP3     H110104   2.319   2.802   4.127 -0.5357 -0.3855  0.1755
 3364TP3     H210105   2.331   2.952   4.144 -0.2299 -0.2274 -1.3429
 3365TP3      O10106   4.291   2.598   5.460  0.1005 -0.6082 -0.2669
 3365TP3     H110107   4.307   2.679   5.509  1.1043 -0.9907  0.0513
 3365TP3     H210108   4.287   2.626   5.369 -2.7966  0.2727  0.0056
 3366TP3      O10109   3.060   3.608   4.892  0.0616  0.7586  0.3377
 3366TP3     H110110   3.031   3.640   4.807  1.2298 -1.2118 -0.8865
 3366TP3     H210111   3.105   3.682   4.932 -1.6014  2.1036 -0.1591
 3367TP3      O10112   2.667   3.873   3.083  0.3382 -0.0381 -0.5846
 3367TP3     H110113   2.690   3.943   3.144  1.4674  1.9274 -3.0848
 3367TP3     H210114   2.737   3.808   3.093 -1.2015 -1.4625  2.4271
 3368TP3      O10115   1.152   1.534   4.924  0.1983  0.6059  0.6673
 3368TP3     H110116   1.147   1.503   5.015  2.6920 -0.0575  0.6519
 3368TP3     H210117   1.202   1.467   4.879 -0.6859  1.1176 -1.1504
 3369TP3      O10118   4.403   2.839   3.351  0.1529  0.2932  0.4402
 3369TP3     H110119   4.400   2.875   3.262  2.0095  0.2378  0.3184
 3369TP3     H210120   4.338   2.769   3.351  1.2816 -0.8423 -1.4132
 3370TP3      O10121   2.582   3.629   4.064  0.2362  0.0851 -0.0340
 3370TP3     H110122   2.632   3.559   4.021 -1.1046 -1.6715  1.1469
 3370TP3     H210123   2.616   3.632   4.153  0.9737  1.6942 -0.3282
 3371TP3      O10124   3.778   2.399   4.851 -0.0334 -0.0591  0.6680
 3371TP3     H110125   3.812   2.439   4.931 -1.4870 -1.1958  1.9277
 3371TP3     H210126   3.849   2.405   4.788  0.8662  1.6294  1.7825
 3372TP3      O10127   2.464   3.518   5.062 -0.4624  0.4691 -0.2355
 3372TP3     H110128   2.550   3.559   5.075  0.3575  0.2374 -3.7493
 3372TP3     H210129   2.469   3.435   5.108 -0.0041  1.7631  2.1753
 3373TP3      O10130   3.619   3.614   4.571 -0.1501 -0.1842  0.0624
 3373TP3     H110131   3.681   3.582   4.637 -1.1277 -1.2922  0.4702
 3373TP3     H210132   3.566   3.679   4.616  0.8137  0.9240 -0.3442
 3374TP3      O10133   2.203   2.670   4.156  0.5134 -0.7002 -0.0988
 3374TP3     H110134   2.216   2.620   4.237  0.1876 -1.7592 -0.6811
 3374TP3     H210135   2.109   2.683   4.150  0.4589 -1.3327 -0.7104
 3375TP3      O10136   3.831   2.705   5.794  0.0037 -0.3517  0.6736
 3375TP3     H110137   3.775   2.763   5.742 -0.3555 -0.3068  1.1031
 3375TP3     H210138   3.920   2.728   5.767 -0.1960 -2.3060 -2.0470
 3376TP3      O10139   2.041   2.677   3.666  0.3913  0.0401 -0.0694
 3376TP3     H110140   2.128   2.643   3.688  1.1050  0.5948 -1.8117
 3376TP3     H210141   2.017   2.730   3.742  1.0249 -1.0790  0.9550
 3377TP3      O10142   2.940   3.107   5.020  0.3010  0.4668 -0.6958
 3377TP3     H110143   2.915   3.189   4.978 -1.5909 -0.4491 -1.4669
 3377TP3     H210144   2.859   3.058   5.027  1.1085 -0.7212  1.2096
 3378TP3      O10145   2.357   3.736   4.364 -0.2187 -0.4240  0.0054
 3378TP3     H110146   2.446   3.705   4.350 -0.6594 -1.1223 -1.4721
 3378TP3     H210147   2.304   3.686   4.301 -2.0394 -1.8303  2.4637
 3379TP3      O10148   3.223   2.218   5.209  0.1937  0.4163 -0.1009
 3379TP3     H110149   3.149   2.218   5.149 -1.0222 -0.2325  1.3363
 3379TP3     H210150   3.298   2.194   5.155 -0.6807  0.8288 -1.5391
 3380TP3      O10151   2.740   3.509   5.203  0.0956  0.0777  0.3514
 3380TP3     H110152   2.680   3.487   5.275 -0.5661  2.6464  0.7042
 3380TP3     H210153   2.793   3.581   5.237  1.8827 -0.6510 -0.7504
 3381TP3      O10154   2.655   3.146   5.069 -0.2209 -0.3429 -0.2207
 3381TP3     H110155   2.587   3.189   5.121 -1.1901 -1.2058 -0.7258
 3381TP3     H210156   2.641   3.177   4.980  2.1848  2.0610  0.1232
 3382TP3      O10157   2.544   3.014   4.605 -0.1392 -0.1536  0.3075
 3382TP3     H110158   2.579   2.926   4.594  2.0314  0.6879 -0.0032
 3382TP3     H210159   2.517   3.041   4.517  0.8555  0.1285  0.0814
 3383TP3      O10160   3.077   3.532   3.497 -0.4364 -0.4290  0.3781
 3383TP3     H110161   3.150   3.582   3.460 -0.0239 -0.2400  1.4332
 3383TP3     H210162   3.094   3.441   3.472  0.3915 -0.4445  0.9876
 3384TP3      O10163   2.136   1.931   3.956  0.0494  0.1199 -0.5384
 3384TP3     H110164   2.044   1.922   3.932  0.3633  1.6822 -2.5967
 3384TP3     H210165   2.136   1.933   4.051 -1.6517 -3.2986 -0.3329
 3385TP3      O10166   3.099   1.608   4.322 -0.2166  0.7678  0.5246
 3385TP3     H110167   3.093   1.685   4.379  0.6868  0.2668  1.3234
 3385TP3     H210168   3.013   1.568   4.327  0.6417 -1.1170  4.2747
 3386TP3      O10169   2.836   2.483   5.621 -0.2223  0.8005  0.5347
 3386TP3     H110170   2.816   2.559   5.675  0.1424  1.2220  0.0764
 3386TP3     H210171   2.826   2.514   5.531 -1.2107  0.0048  0.3407
 3387TP3      O10172   1.827   3.811   5.053 -0.4329  0.4538  0.5092
 3387TP3     H110173   1.831   3.746   4.983  0.7439  2.5865 -1.5567
 3387TP3     H210174   1.749   3.862   5.034 -1.7910 -0.7062  2.5685
 3388TP3      O10175   1.988   2.998   4.936 -0.1016 -0.0147  0.6296
 3388TP3     H110176   1.959   2.921   4.887 -2.5569  0.5771  1.0285
 3388TP3     H210177   2.067   3.028   4.891  0.5871 -2.3907  0.1207
 3389TP3      O10178   3.242   2.711   4.632 -0.6893 -0.1126 -0.0219
 3389TP3     H110179   3.240   2.802   4.604  0.7364  0.1840  0.7229
 3389TP3     H210180   3.253   2.715   4.727  0.3059 -1.0363 -0.0719
 3390TP3      O10181   2.888   1.979   3.459  0.3073  0.4220  0.0625
 3390TP3     H110182   2.798   2.005   3.481  0.6463  0.8544  0.9627
 3390TP3     H210183   2.941   2.055   3.480  0.5663  1.4001 -3.3980
 3391TP3      O10184   3.459   2.811   5.539 -0.0462 -0.3659  0.5274
 3391TP3     H110185   3.474   2.724   5.502  0.1935 -0.0793 -0.0574
 3391TP3     H210186   3.365   2.814   5.556 -0.2525 -0.3077 -0.5545
 3392TP3      O10187   2.765   2.014   5.131 -1.0385  0.0750 -0.0606
 3392TP3     H110188   2.846   1.963   5.122 -0.5697  0.9765 -1.2392
 3392TP3     H210189   2.726   2.011   5.044 -1.8563  0.3397  0.2951
 3393TP3      O10190   1.925   2.329   5.031 -0.3694 -0.2444 -0.3711
 3393TP3     H110191   1.879   2.321   5.115 -2.0066  1.7029 -1.0052
 3393TP3     H210192   1.870   2.283   4.968  1.3789 -2.6263 -0.3039
 3394TP3      O10193   3.002   2.088   4.059 -0.5493  0.2788  0.2613
 3394TP3     H110194   3.059   2.037   4.001 -0.2929  1.2203 -0.3321
 3394TP3     H210195   2.939   2.024   4.093  0.4367 -0.6486  0.3997
 3395TP3      O10196   3.611   3.464   4.943 -0.3167  0.2273 -0.1446
 3395TP3     H110197   3.573   3.403   5.007 -1.4801  0.4327 -0.6067
 3395TP3     H210198   3.640   3.538   4.995 -0.5964  0.0812  0.2296
 3396TP3      O10199   3.198   2.833   5.873  0.0885 -0.0635  0.0641
 3396TP3     H110200   3.168   2.768   5.810 -0.6340  1.1197 -0.8751
 3396TP3     H210201   3.294   2.829   5.868  0.1160 -2.3684  1.4800
 3397TP3      O10202   4.068   3.035   4.535  0.7562 -0.7527 -0.2368
 3397TP3     H110203   4.041   2.971   4.602 -0.0125 -0.1129  0.0708
 3397TP3     H210204   4.136   3.086   4.578  1.0996 -1.1054 -0.3523
 3398TP3      O10205   2.866   3.307   3.389 -0.0938 -0.0382  0.0673
 3398TP3     H110206   2.790   3.365   3.393 -0.8035 -0.4982 -3.4583
 3398TP3     H210207   2.828   3.219   3.380  0.9733 -0.8997  2.8614
 3399TP3      O10208   3.853   3.257   4.188 -0.1215  0.1038  0.7822
 3399TP3     H110209   3.869   3.192   4.256  3.3033 -0.7766 -0.6768
 3399TP3     H210210   3.934   3.306   4.182 -0.8283  1.1328 -1.6495
 3400TP3      O10211   3.314   2.130   3.605 -0.5468  0.5309 -0.2894
 3400TP3     H110212   3.239   2.167   3.558 -1.7457  1.2327  1.9919
 3400TP3     H210213   3.335   2.196   3.671 -1.8121 -2.0837  3.0131
 3401TP3      O10214   2.360   2.026   3.788  0.0784  0.5325  0.1880
 3401TP3     H110215   2.293   1.995   3.850 -0.3699  0.3480 -0.3839
 3401TP3     H210216   2.326   2.110   3.757 -0.8728 -0.4790 -1.6039
 3402TP3      O10217   3.151   2.861   0.349 -0.7295 -0.0813 -0.1259
 3402TP3     H110218   3.184   2.816   0.271 -1.7740  0.0641 -0.6761
 3402TP3     H210219   3.070   2.903   0.320 -0.9686  0.2511  0.9598
 3403TP3      O10220   3.455   3.292   4.751 -0.1155  0.4970  0.1150
 3403TP3     H110221   3.496   3.369   4.791  0.7688 -0.9337  2.1468
 3403TP3     H210222   3.361   3.308   4.760 -0.0588  2.3655 -1.6993
 3404TP3      O10223   4.623   3.018   0.543 -0.3444 -0.0371 -0.5841
 3404TP3     H110224   4.630   3.101   0.494  2.6329 -0.2724 -0.7582
 3404TP3     H210225   4.535   2.987   0.525 -0.6759  1.8354 -2.6367
 3405TP3      O10226   2.798   2.651   4.051  0.1351  0.2974 -0.2743
 3405TP3     H110227   2.824   2.562   4.028  3.4975  1.1743 -0.3903
 3405TP3     H210228   2.825   2.661   4.142  1.4780  1.6645 -0.7645
 3406TP3      O10229   2.837   3.518   4.685 -0.1151  0.3217  0.4327
 3406TP3     H110230   2.900   3.447   4.679 -0.1908  0.2868 -0.0036
 3406TP3     H210231   2.755   3.479   4.654 -0.1059  0.6570 -0.0257
 3407TP3      O10232   3.167   2.730   5.292 -0.1676 -0.0507  0.0821
 3407TP3     H110233   3.195   2.765   5.377 -0.3289 -1.3521  0.7047
 3407TP3     H210234   3.204   2.642   5.290 -1.1518 -0.4633 -0.6847
 3408TP3      O10235   3.341   3.437   0.049 -0.1188 -0.1846 -0.2071
 3408TP3     H110236   3.353   3.389   0.131  0.0402  1.7839  0.9836
 3408TP3     H210237   3.337   3.528   0.075  1.6902  0.6770 -2.5730
 3409TP3      O10238   2.073   2.588   4.450 -0.5657 -0.4257 -0.1871
 3409TP3     H110239   2.000   2.650   4.460 -0.5882 -0.4068 -0.4741
 3409TP3     H210240   2.038   2.519   4.395 -0.1258 -0.0234 -0.9796
 3410TP3      O10241   2.175   3.172   4.566  0.1344  0.2569  0.0106
 3410TP3     H110242   2.098   3.220   4.535 -1.1700 -0.9680  1.1943
 3410TP3     H210243   2.239   3.183   4.497 -1.5717  0.2040 -1.6692
 3411TP3      O10244   2.315   3.451   4.412  0.0783  0.5515 -0.1613
 3411TP3     H110245   2.289   3.521   4.472  1.4173  0.9688 -0.0372
 3411TP3     H210246   2.389   3.409   4.454  0.0986 -0.1130 -0.8408
 3412TP3      O10247   1.685   4.415   5.296 -0.2202  0.6598 -0.6942
 3412TP3     H110248   1.599   4.380   5.319  1.1238 -2.0772  0.6673
 3412TP3     H210249   1.697   4.390   5.204 -1.4101  2.3409 -1.3401
 3413TP3      O10250   1.846   3.189   4.699  0.1937 -0.4292  0.1806
 3413TP3     H110251   1.794   3.251   4.749  2.0092  0.0048  1.6400
 3413TP3     H210252   1.910   3.155   4.761 -0.5266 -3.6267 -0.5929
 3414TP3      O10253   1.222   1.645   4.402 -0.1217 -0.3722 -0.4924
 3414TP3     H110254   1.214   1.616   4.311 -0.9585  1.2117 -0.9462
 3414TP3     H210255   1.134   1.636   4.438 -0.1849  0.6750 -0.3690
 3415TP3      O10256   2.505   3.117   4.351 -0.2510  0.4857  0.5774
 3415TP3     H110257   2.501   3.193   4.292  3.2262 -0.2241 -0.8381
 3415TP3     H210258   2.572   3.061   4.312 -0.0783 -1.5978  3.5762
 3416TP3      O10259   2.227   3.585   4.907 -0.7266  0.6975 -0.0950
 3416TP3     H110260   2.238   3.678   4.926  0.8679  0.8227 -1.3458
 3416TP3     H210261   2.304   3.544   4.947 -1.4531 -0.0940  0.5043
 3417TP3      O10262   2.893   2.802   3.812  0.0892 -0.3170 -0.0576
 3417TP3     H110263   2.883   2.743   3.886 -0.6114  1.4741  1.3654
 3417TP3     H210264   2.988   2.805   3.796  0.1008 -2.1915 -0.5485
 3418TP3      O10265   3.419   2.158   5.011  0.3033  0.3067  0.9173
 3418TP3     H110266   3.499   2.119   5.047  0.2249  0.6824  1.5103
 3418TP3     H210267   3.449   2.231   4.958  0.3028  1.0964  1.9856
 3419TP3      O10268   2.315   2.797   5.329  0.0894  0.6031 -0.0789
 3419TP3     H110269   2.393   2.838   5.293  0.6663 -1.3053 -1.1302
 3419TP3     H210270   2.242   2.849   5.296  0.7870  0.7937 -1.3648
 3420TP3      O10271   3.228   3.292   5.500  0.1654  0.7858 -0.2596
 3420TP3     H110272   3.242   3.226   5.432 -0.1267 -1.5832  1.7882
 3420TP3     H210273   3.305   3.285   5.556 -0.4672  1.2420  0.6968
 3421TP3      O10274   1.756   1.371   5.525  0.0860 -0.5545  0.9123
 3421TP3     H110275   1.767   1.288   5.478 -2.5328 -0.5832  0.2237
 3421TP3     H210276   1.800   1.356   5.609  2.1128 -1.6088 -0.2539
 3422TP3      O10277   2.902   2.398   4.664 -0.2625  0.2858 -0.1954
 3422TP3     H110278   2.829   2.367   4.610  0.3001 -0.6513 -0.4379
 3422TP3     H210279   2.975   2.341   4.640 -0.2176 -0.7811  2.2230
 3423TP3      O10280   2.614   2.455   4.928 -0.0444  0.1113 -0.9700
 3423TP3     H110281   2.609   2.522   4.860 -1.5489  0.4604 -0.5724
 3423TP3     H210282   2.528   2.459   4.971  0.8058 -0.1897  0.8448
 3424TP3      O10283   2.936   2.096   4.819 -0.3994  0.0238  0.5992
 3424TP3     H110284   2.978   2.106   4.734  0.6060 -0.1801  1.0508
 3424TP3     H210285   2.998   2.134   4.881 -0.9812 -0.1010  1.2741
 3425TP3      O10286   3.277   2.616   3.965  0.0618 -0.3765 -0.3288
 3425TP3     H110287   3.288   2.710   3.955 -2.3505 -0.2445 -3.1584
 3425TP3     H210288   3.365   2.580   3.949  0.7344  1.3330 -0.7058
 3426TP3      O10289   1.768   1.844   4.307  0.1135  0.2654 -0.3046
 3426TP3     H110290   1.757   1.922   4.252  2.0001  0.1734 -0.8575
 3426TP3     H210291   1.730   1.773   4.255  0.3497  0.4610 -0.7507
 3427TP3      O10292   1.649   2.559   5.206 -0.2607 -0.3324 -0.5603
 3427TP3     H110293   1.697   2.533   5.284 -0.6012 -0.0335 -0.2452
 3427TP3     H210294   1.707   2.619   5.160 -0.7575  0.9218  0.3958
 3428TP3      O10295   2.716   0.990   5.234 -0.3185  0.5800  1.0722
 3428TP3     H110296   2.793   0.968   5.182  0.8030  2.4602  1.8201
 3428TP3     H210297   2.687   1.075   5.201 -1.3272  0.4752  1.6270
 3429TP3      O10298   3.300   3.605   5.442 -0.5119 -0.0166  0.2904
 3429TP3     H110299   3.384   3.602   5.487 -1.3769  0.8412  2.0755
 3429TP3     H210300   3.264   3.516   5.451 -0.4540  0.0169  0.8718
 3430TP3      O10301   2.916   3.104   3.951  0.8067  0.4483 -0.1121
 3430TP3     H110302   2.928   3.010   3.934 -0.7693  0.1515  0.2528
 3430TP3     H210303   2.933   3.113   4.045  2.5575  0.8440 -0.4344
 3431TP3      O10304   3.870   2.205   3.844 -0.0826  0.0246  0.9359
 3431TP3     H110305   3.851   2.236   3.756  0.9694 -0.3585  0.5523
 3431TP3     H210306   3.806   2.135   3.860 -1.0148  0.8661  0.9394
 3432TP3      O10307   2.721   2.616   5.383  0.6765  0.2254  0.7717
 3432TP3     H110308   2.634   2.600   5.345 -0.1245  2.7796  1.3276
 3432TP3     H210309   2.770   2.661   5.314  0.6593  1.0780  1.2984
 3433TP3      O10310   2.037   3.874   5.226 -0.4940 -0.1723 -0.2146
 3433TP3     H110311   1.993   3.823   5.158 -1.5459 -1.9323  1.6969
 3433TP3     H210312   1.982   3.951   5.237  0.4954  0.9259 -2.3254
 3434TP3      O10313   3.755   3.084   0.144  0.3206 -0.1633  0.0942
 3434TP3     H110314   3.708   3.022   0.089  2.4406  1.2448 -3.6134
 3434TP3     H210315   3.842   3.045   0.156  1.4964  1.6814 -1.8146
 3435TP3      O10316   3.177   2.817   5.543  0.2483  0.4592  0.2006
 3435TP3     H110317   3.134   2.897   5.575 -0.2536  0.5983 -0.7920
 3435TP3     H210318   3.138   2.747   5.596  0.7102  0.8650  1.0937
 3436TP3      O10319   2.075   2.543   4.875  0.0646  0.3870  0.1182
 3436TP3     H110320   2.125   2.526   4.794 -2.1204 -0.5010 -1.1282
 3436TP3     H210321   2.059   2.457   4.912  1.3629  0.8052  1.7910
 3437TP3      O10322   3.081   2.859   4.108  0.0070 -0.3011 -0.2021
 3437TP3     H110323   3.100   2.793   4.174  0.3288 -0.2668 -0.2538
 3437TP3     H210324   3.025   2.923   4.152  0.8385  0.1206  0.2717
 3438TP3      O10325   3.655   2.704   3.890 -0.0690 -0.2098 -0.4720
 3438TP3     H110326   3.612   2.766   3.830 -0.8376 -1.4137 -1.1915
 3438TP3     H210327   3.584   2.659   3.934  0.4950 -0.1436  0.5343
 3439TP3      O10328   2.660   2.284   4.585 -0.1699 -0.0866  0.2124
 3439TP3     H110329   2.631   2.193   4.574 -1.0651  0.4659 -2.7426
 3439TP3     H210330   2.596   2.321   4.646 -0.2312 -1.2321  0.8846
 3440TP3      O10331   2.308   2.872   4.457  0.2692 -0.1614 -0.3989
 3440TP3     H110332   2.355   2.937   4.405  0.7167  0.4274  0.7016
 3440TP3     H210333   2.217   2.878   4.427  0.0804  1.7627  0.4113
 3441TP3      O10334   2.788   2.239   5.283 -0.5660  0.8184 -0.9122
 3441TP3     H110335   2.852   2.241   5.354 -1.2579 -0.9459 -0.1813
 3441TP3     H210336   2.806   2.159   5.235 -1.0337  1.2583 -1.8517
 3442TP3      O10337   2.706   1.526   4.732 -0.2331  0.0575 -0.3696
 3442TP3     H110338   2.778   1.522   4.795 -1.1705  0.4278  0.7622
 3442TP3     H210339   2.719   1.609   4.686  0.8265 -0.5182 -1.1347
 3443TP3      O10340   1.930   2.817   3.870  0.1016  0.3538 -0.6326
 3443TP3     H110341   1.977   2.862   3.939 -0.5434 -1.7819  1.3257
 3443TP3     H210342   1.839   2.847   3.878  0.1688  0.6918 -1.0889
 3444TP3      O10343   1.094   3.769   4.558  0.2867  0.5288 -0.1003
 3444TP3     H110344   1.070   3.742   4.470  3.4818 -1.8926 -0.4140
 3444TP3     H210345   1.039   3.715   4.615 -1.2230  1.5312 -0.5548
 3445TP3      O10346   2.329   3.059   4.929  0.0275 -0.3114 -0.1068
 3445TP3     H110347   2.346   2.998   4.857 -0.3042  0.5249 -0.9085
 3445TP3     H210348   2.400   3.122   4.924  0.1000 -0.3491  0.4207
 3446TP3      O10349   2.096   2.715   5.092 -0.3397 -0.4974  0.0751
 3446TP3     H110350   2.152   2.791   5.079 -1.2083  0.2225  0.4016
 3446TP3     H210351   2.073   2.688   5.003 -0.4857 -0.0108 -0.0419
 3447TP3      O10352   3.314   3.184   5.058 -0.4442  0.2347 -0.0178
 3447TP3     H110353   3.384   3.243   5.084 -1.1410  0.9491  0.2639
 3447TP3     H210354   3.268   3.163   5.139 -1.8791  1.4997 -0.4548
 3448TP3      O10355   0.692   2.506   3.879 -0.4104 -0.1643 -0.5144
 3448TP3     H110356   0.767   2.481   3.825  1.1391  0.8312  1.0724
 3448TP3     H210357   0.706   2.460   3.962 -1.5184  0.1251 -0.1478
 3449TP3      O10358   3.553   3.597   5.593  0.0170  0.2631  0.8274
 3449TP3     H110359   3.530   3.557   5.676  1.2698  0.5904  1.3548
 3449TP3     H210360   3.642   3.629   5.605  0.9995 -1.4255 -1.2811
 3450TP3      O10361   3.125   3.487   4.038 -0.5345 -0.4172  0.0291
 3450TP3     H110362   3.040   3.446   4.022 -0.9453  1.5861 -4.3685
 3450TP3     H210363   3.106   3.581   4.047  1.1555  0.1283 -1.3935
 3451TP3      O10364   3.034   2.263   5.012 -0.0575 -0.3647 -0.5792
 3451TP3     H110365   2.952   2.297   5.047  0.5544  0.2956  0.2506
 3451TP3     H210366   3.085   2.340   4.989  1.1048 -0.6931  0.7569
 3452TP3      O10367   3.309   3.866   5.525  0.0167  0.4167  0.1593
 3452TP3     H110368   3.403   3.885   5.530  0.6555 -0.5499 -4.2392
 3452TP3     H210369   3.305   3.773   5.501 -1.8054  1.1689 -2.8971
 3453TP3      O10370   3.196   1.636   5.468 -0.5796 -0.0296  0.5486
 3453TP3     H110371   3.176   1.594   5.551 -2.1752  0.3551  0.3886
 3453TP3     H210372   3.208   1.563   5.407 -1.5389 -0.2930  0.6604
 3454TP3      O10373   1.655   3.793   0.484 -0.2346 -0.0778  0.1446
 3454TP3     H110374   1.682   3.870   0.434  2.3589 -1.7221 -1.2111
 3454TP3     H210375   1.621   3.733   0.419 -1.8514 -0.3158  1.1379
 3455TP3      O10376   2.679   2.631   3.683 -0.4811 -0.2325  0.3864
 3455TP3     H110377   2.712   2.713   3.719 -0.8055  0.1305 -0.1231
 3455TP3     H210378   2.726   2.563   3.731  1.1927  0.2524 -0.4844
 3456TP3      O10379   1.958   2.856   4.702  0.4969  0.0740 -0.0754
 3456TP3     H110380   1.906   2.850   4.622 -1.6507  1.2252  1.1585
 3456TP3     H210381   2.040   2.897   4.673 -0.3437  0.7603 -1.6475
 3457TP3      O10382   2.681   2.815   5.587  0.0999 -0.1350  0.3484
 3457TP3     H110383   2.588   2.795   5.576 -0.0652  0.8505 -0.1661
 3457TP3     H210384   2.722   2.779   5.509  0.2542 -1.1085  0.8616
 3458TP3      O10385   3.329   2.796   3.558 -0.6433 -0.1123  0.2625
 3458TP3     H110386   3.393   2.758   3.498  2.2663  1.5258  2.1104
 3458TP3     H210387   3.326   2.888   3.534 -0.4176  0.3106  1.7483
 3459TP3      O10388   4.212   3.159   4.737  0.7105 -0.1903  0.3776
 3459TP3     H110389   4.191   3.105   4.813 -2.1575 -1.8948 -1.4483
 3459TP3     H210390   4.205   3.249   4.769 -0.0900 -0.8496  2.1990
 3460TP3      O10391   3.064   3.525   5.148  0.0566 -0.4770 -0.1030
 3460TP3     H110392   3.140   3.583   5.151 -1.9537  2.4067 -0.5351
 3460TP3     H210393   3.026   3.540   5.061 -0.3678 -2.8085 -0.3846
 3461TP3      O10394   1.312   3.340   4.539 -0.1333  0.3834 -0.2720
 3461TP3     H110395   1.321   3.337   4.634  1.2338 -0.1461 -0.3973
 3461TP3     H210396   1.402   3.339   4.506 -0.5958 -0.6479 -1.5932
 3462TP3      O10397   2.743   4.200   5.352 -0.0541 -0.1171 -0.0889
 3462TP3     H110398   2.804   4.192   5.278  0.1308  2.9375 -0.4315
 3462TP3     H210399   2.783   4.149   5.422  2.0170  0.3251 -0.8694
 3463TP3      O10400   3.716   2.082   4.807 -0.4804 -0.4638  1.2368
 3463TP3     H110401   3.749   2.086   4.897  1.1525 -0.5482  0.6797
 3463TP3     H210402   3.782   2.129   4.756 -1.3868 -0.4176  0.0727
 3464TP3      O10403   3.029   2.855   4.423  0.2576 -0.6843  0.4727
 3464TP3     H110404   3.088   2.913   4.472  1.2603 -2.2521  1.1959
 3464TP3     H210405   2.953   2.845   4.480 -1.2691  2.0921 -0.8562
 3465TP3      O10406   2.016   3.381   5.428 -0.2893 -0.1536 -0.0077
 3465TP3     H110407   1.975   3.455   5.382  1.1457  0.7907  0.1372
 3465TP3     H210408   2.081   3.348   5.366 -0.1083 -0.5319  0.3758
 3466TP3      O10409   4.286   3.473   4.535 -0.5772  0.2418 -0.2022
 3466TP3     H110410   4.255   3.464   4.626  1.1030  3.1800  0.7646
 3466TP3     H210411   4.264   3.563   4.511  2.1970  0.6945 -1.3898
 3467TP3      O10412   3.696   3.676   4.332  0.3786 -0.9079 -0.1450
 3467TP3     H110413   3.665   3.640   4.415  0.4128 -1.8283 -0.5194
 3467TP3     H210414   3.790   3.657   4.331  0.6274  0.2673  0.1826
 3468TP3      O10415   3.397   4.186   4.827  0.4380  0.1308  0.3287
 3468TP3     H110416   3.365   4.275   4.817 -0.1776  0.1017  1.8052
 3468TP3     H210417   3.407   4.154   4.737 -0.6608  1.2214 -0.2106
 3469TP3      O10418   3.505   3.373   5.188 -0.1203  0.5753  0.6379
 3469TP3     H110419   3.585   3.364   5.240 -0.6233 -3.7918  1.0773
 3469TP3     H210420   3.437   3.391   5.253  0.2568  3.1082  0.4018
 3470TP3      O10421   3.306   1.967   5.774 -0.1071 -0.2231  0.9533
 3470TP3     H110422   3.380   2.012   5.814  0.1120 -0.1415  0.4609
 3470TP3     H210423   3.229   2.011   5.810  0.0969  1.1412 -0.1470
 3471TP3      O10424   1.736   2.284   4.387  0.4974  0.3770 -0.0532
 3471TP3     H110425   1.748   2.323   4.475 -0.0648  0.3897  0.0211
 3471TP3     H210426   1.707   2.358   4.333 -3.5634 -0.4074  0.7404
 3472TP3      O10427   3.128   2.663   3.726  0.1431  0.1175 -0.4225
 3472TP3     H110428   3.155   2.647   3.817  0.5753  3.3251  0.1394
 3472TP3     H210429   3.209   2.682   3.680 -0.1500 -0.8208 -1.3509
 3473TP3      O10430   2.096   3.327   4.967  0.5225  0.3656 -0.2521
 3473TP3     H110431   2.006   3.295   4.960  0.6923 -0.0456 -0.6257
 3473TP3     H210432   2.100   3.402   4.908  0.0069  1.3716  0.9453
 3474TP3      O10433   3.041   3.315   4.607 -0.4890 -0.0981  0.1619
 3474TP3     H110434   3.060   3.349   4.519  0.5092  0.3782  0.5498
 3474TP3     H210435   3.108   3.355   4.663 -0.8178 -0.7827  1.0569
 3475TP3      O10436   2.947   3.989   3.934  0.1753  0.2517  0.4146
 3475TP3     H110437   3.037   3.986   3.899  1.3546 -1.2663  3.2668
 3475TP3     H210438   2.949   4.060   3.997 -1.2007  1.3248 -0.6889
 3476TP3      O10439   2.580   3.186   4.800  0.2944  0.7597  0.6408
 3476TP3     H110440   2.599   3.120   4.734  1.8858 -0.6772  2.4110
 3476TP3     H210441   2.517   3.245   4.759 -0.0164 -0.9927 -1.5302
 3477TP3      O10442   4.053   4.059   5.488  0.0201 -0.4526 -0.3410
 3477TP3     H110443   4.088   4.147   5.500  1.2781 -1.0762  0.9545
 3477TP3     H210444   4.128   4.001   5.507 -0.3565 -1.7904 -2.6005
 3478TP3      O10445   2.438   2.180   4.795 -0.1019 -0.0283  0.3636
 3478TP3     H110446   2.423   2.260   4.845 -0.5374  0.2908 -0.2604
 3478TP3     H210447   2.492   2.126   4.852 -0.5578  0.3351  1.1564
 3479TP3      O10448   2.787   1.750   4.515 -0.5179 -0.7293  0.0129
 3479TP3     H110449   2.762   1.739   4.423  2.2876 -2.7103 -0.6458
 3479TP3     H210450   2.870   1.797   4.512 -0.0723 -1.3670  1.4624
 3480TP3      O10451   1.840   2.801   5.194 -0.3609  0.1186  0.2073
 3480TP3     H110452   1.924   2.767   5.162 -0.3084  0.9661 -0.5772
 3480TP3     H210453   1.858   2.826   5.285  0.1295 -0.0677  0.1668
 3481TP3      O10454   2.933   1.808   4.852  0.2087 -0.0816 -0.2205
 3481TP3     H110455   2.929   1.898   4.819  1.3384 -0.4977 -1.6490
 3481TP3     H210456   2.958   1.817   4.944  1.1899  1.0626 -0.5667
 3482TP3      O10457   1.758   2.980   4.173  0.5591  0.1811 -0.3192
 3482TP3     H110458   1.677   2.997   4.123  0.7070  0.8881 -0.3276
 3482TP3     H210459   1.765   3.054   4.233  1.2560  0.1748 -0.3846
 3483TP3      O10460   2.876   3.053   5.408  0.4022  0.3197 -0.0826
 3483TP3     H110461   2.820   3.064   5.486  2.1255 -1.4112  1.5005
 3483TP3     H210462   2.921   3.137   5.399  0.1485  0.5584  0.7717
 3484TP3      O10463   2.995   2.157   5.439 -0.1807 -0.1585  0.0527
 3484TP3     H110464   3.007   2.071   5.398 -0.5978 -0.4887  0.5991
 3484TP3     H210465   3.013   2.142   5.532 -1.0640  0.1499  0.2886
 3485TP3      O10466   1.353   2.287   3.732 -0.1083  0.3248  0.1464
 3485TP3     H110467   1.437   2.288   3.685  1.8940 -2.1320  3.2153
 3485TP3     H210468   1.291   2.247   3.671  1.6848 -0.3887 -1.3043
 3486TP3      O10469   3.242   2.422   5.875 -0.2802 -0.6914  0.0919
 3486TP3     H110470   3.256   2.328   5.864 -0.1264 -0.7991  1.1456
 3486TP3     H210471   3.263   2.460   5.789  1.8211 -1.3634  0.2661
 3487TP3      O10472   2.509   2.589   3.993  0.0269  0.1520 -0.1917
 3487TP3     H110473   2.599   2.614   4.015  0.9085 -2.3343 -0.6122
 3487TP3     H210474   2.469   2.670   3.962  1.4517  1.7930  1.9322
 3488TP3      O10475   2.627   3.636   4.316 -0.5366 -0.5194 -0.6257
 3488TP3     H110476   2.674   3.570   4.366 -1.9798 -0.2123  1.2865
 3488TP3     H210477   2.685   3.712   4.316 -0.5572 -0.4857  0.7477
 3489TP3      O10478   3.358   3.154   4.411 -0.3697 -0.2157  0.6688
 3489TP3     H110479   3.319   3.205   4.340  2.2495 -1.6123 -2.0006
 3489TP3     H210480   3.423   3.213   4.450  0.8551 -0.6074 -0.7042
 3490TP3      O10481   3.190   3.812   4.990 -0.2393 -0.3074 -0.4039
 3490TP3     H110482   3.172   3.905   4.983 -3.6266 -0.4700  2.9046
 3490TP3     H210483   3.243   3.803   5.069 -2.2990 -1.2426  0.9617
 3491TP3      O10484   1.455   2.744   5.106 -0.1688 -0.4671 -0.0928
 3491TP3     H110485   1.528   2.688   5.130 -0.5485 -0.6419  0.6817
 3491TP3     H210486   1.421   2.777   5.189 -1.6832 -1.2909 -0.3424
 3492TP3      O10487   2.981   3.291   5.276 -0.0092  0.3854  0.2141
 3492TP3     H110488   2.988   3.375   5.230  0.7367  1.3345  1.9531
 3492TP3     H210489   2.942   3.232   5.212  1.0163  1.6047 -1.6405
 3493TP3      O10490   1.753   3.609   5.519 -0.0877  0.6095  0.0976
 3493TP3     H110491   1.703   3.673   5.570  1.3369  0.6544  1.5452
 3493TP3     H210492   1.712   3.608   5.433 -2.5520  0.6224  1.1963
 3494TP3      O10493   3.218   3.342   4.860  1.0831 -0.1152 -0.0843
 3494TP3     H110494   3.152   3.410   4.872 -1.2773 -1.6666 -3.1183
 3494TP3     H210495   3.221   3.296   4.944 -1.5344  0.1837  0.2432
 3495TP3      O10496   3.550   2.519   3.666  0.4803  0.7290  0.1865
 3495TP3     H110497   3.533   2.459   3.739 -1.9172  1.3700  0.2070
 3495TP3     H210498   3.497   2.486   3.594  2.1165  0.6384 -1.0493
 3496TP3      O10499   2.825   3.491   3.976  0.4035 -0.3433 -0.4359
 3496TP3     H110500   2.875   3.552   3.922  0.3837 -1.6050 -1.9292
 3496TP3     H210501   2.799   3.421   3.917 -0.1920 -1.4692  1.0776
 3497TP3      O10502   3.505   2.521   5.819  0.0627 -0.5303  0.0545
 3497TP3     H110503   3.598   2.499   5.815 -0.0732 -1.0992 -0.0832
 3497TP3     H210504   3.462   2.447   5.775 -0.7554 -2.0821  3.1973
 3498TP3      O10505   2.886   2.813   5.248  0.3133 -0.4908  0.4121
 3498TP3     H110506   2.969   2.776   5.277  0.7948  0.5561  0.4232
 3498TP3     H210507   2.890   2.905   5.277  0.5106  0.4466 -2.2833
 3499TP3      O10508   2.507   3.170   3.750  0.1681 -0.5812 -0.0251
 3499TP3     H110509   2.569   3.210   3.810 -0.0619 -0.7871  0.3521
 3499TP3     H210510   2.498   3.080   3.781 -0.5323 -0.4719  0.0891
 3500TP3      O10511   2.372   4.632   4.388 -0.2723  0.6025  0.1254
 3500TP3     H110512   2.391   4.599   4.475 -1.1823 -1.3624 -0.3775
 3500TP3     H210513   2.285   4.598   4.367  0.0017  0.8638 -1.6230
 3501TP3      O10514   3.571   2.364   4.264 -0.4743 -0.3732  0.5221
 3501TP3     H110515   3.595   2.271   4.260 -0.8781 -0.4428 -0.5495
 3501TP3     H210516   3.487   2.365   4.309 -0.8114 -0.6007 -0.0961
 3502TP3      O10517   2.954   2.583   3.528 -0.2168 -0.1649 -0.1676
 3502TP3     H110518   2.954   2.664   3.476 -2.4943  0.3901  0.5449
 3502TP3     H210519   2.967   2.612   3.618  0.0089 -0.7182 -0.0177
 3503TP3      O10520   4.132   3.087   4.270  0.6943 -0.6080 -0.2219
 3503TP3     H110521   4.112   3.063   4.361  0.8028 -1.7867 -0.4939
 3503TP3     H210522   4.051   3.068   4.223  0.5918  0.1390 -0.3610
 3504TP3      O10523   1.766   2.828   0.105  0.0168 -0.0640  0.1743
 3504TP3     H110524   1.778   2.745   0.059  2.7075  0.0590  0.4798
 3504TP3     H210525   1.743   2.890   0.036 -0.8077 -0.8080 -0.2422
 3505TP3      O10526   1.866   3.174   4.434 -0.4595  0.7951  0.2653
 3505TP3     H110527   1.863   3.189   4.528 -0.3168 -0.6902  0.5282
 3505TP3     H210528   1.908   3.253   4.399  0.0767  1.0883  1.5059
 3506TP3      O10529   1.739   3.268   5.791  0.4037 -0.9569 -0.7716
 3506TP3     H110530   1.746   3.274   5.696  1.6149 -1.1491 -0.7144
 3506TP3     H210531   1.782   3.347   5.823  0.8281 -1.3388 -0.3768
 3507TP3      O10532   2.703   1.393   4.487 -0.6147  0.0052  0.3010
 3507TP3     H110533   2.685   1.299   4.482 -0.6663  0.0218  0.1595
 3507TP3     H210534   2.730   1.408   4.578  0.3487 -0.3142  0.0788
 3508TP3      O10535   1.796   2.856   4.453 -0.2067  0.7030 -0.3232
 3508TP3     H110536   1.786   2.925   4.387 -0.8232 -1.9373 -3.2163
 3508TP3     H210537   1.707   2.833   4.477 -0.1610 -0.8297 -1.4576
 3509TP3      O10538   4.462   2.938   4.674 -0.9125  0.5843 -0.5684
 3509TP3     H110539   4.444   3.002   4.743 -0.1219  0.9072 -0.6491
 3509TP3     H210540   4.455   2.987   4.593 -0.8399  0.4423 -0.6616
 3510TP3      O10541   2.027   2.374   4.278 -0.3377  0.2744 -0.5780
 3510TP3     H110542   1.942   2.336   4.300 -0.1645  0.3840  0.2963
 3510TP3     H210543   2.029   2.373   4.182 -0.8417 -0.7719 -0.5893
 3511TP3      O10544   2.141   4.184   4.886  0.5521 -0.0569 -0.3302
 3511TP3     H110545   2.088   4.250   4.931  0.8205 -0.4019  0.5065
 3511TP3     H210546   2.188   4.139   4.956  2.7108  0.8675 -1.0952
 3512TP3      O10547   3.857   3.027   4.722 -0.0299  0.3556 -0.3749
 3512TP3     H110548   3.877   3.115   4.754 -1.9808  0.2801  1.2762
 3512TP3     H210549   3.764   3.031   4.698  0.1439 -0.9686 -1.4012
 3513TP3      O10550   3.569   1.670   4.505  0.0834 -0.7667  0.0513
 3513TP3     H110551   3.622   1.612   4.560  0.4528 -0.9225 -0.4633
 3513TP3     H210552   3.632   1.717   4.451 -0.2729 -0.6117 -0.2364
 3514TP3      O10553   2.793   2.856   4.543  0.5072 -0.5836 -0.2954
 3514TP3     H110554   2.835   2.933   4.581  0.6359 -0.7324 -0.1316
 3514TP3     H210555   2.815   2.785   4.603  1.4616 -0.9943 -1.1047
 3515TP3      O10556   2.499   3.264   5.262 -0.2463 -0.2743  0.4271
 3515TP3     H110557   2.498   3.205   5.338 -3.1067 -0.0090  0.6771
 3515TP3     H210558   2.532   3.347   5.296 -2.0872  0.0260  1.5814
 3516TP3      O10559   3.551   2.211   3.782  0.4281  0.3749  0.1144
 3516TP3     H110560   3.611   2.212   3.708  2.0627  0.5656  1.3838
 3516TP3     H210561   3.578   2.135   3.834 -2.6271 -1.6307 -0.9135
 3517TP3      O10562   3.224   2.470   4.815  0.4001  0.6113 -0.1279
 3517TP3     H110563   3.318   2.457   4.805  0.2010 -0.1015 -1.3678
 3517TP3     H210564   3.193   2.493   4.727 -0.5327  1.2467  0.3422
 3518TP3      O10565   4.129   2.585   4.637 -0.5545 -0.7662 -0.1782
 3518TP3     H110566   4.170   2.648   4.696 -1.0910 -2.3948  2.0640
 3518TP3     H210567   4.185   2.584   4.560 -0.1586  1.8949 -0.0161
 3519TP3      O10568   1.946   3.570   4.849 -0.1082  0.1947 -0.2597
 3519TP3     H110569   1.914   3.628   4.780 -2.0647  1.1580  1.3524
 3519TP3     H210570   2.039   3.591   4.856 -0.2963  1.4912 -1.2523
 3520TP3      O10571   2.316   3.652   4.032  0.0350 -0.0589 -0.0142
 3520TP3     H110572   2.283   3.562   4.021 -0.1710 -0.3291  2.2301
 3520TP3     H210573   2.412   3.642   4.033  0.1249  0.1556 -2.4168
 3521TP3      O10574   2.630   1.592   0.195 -0.7800 -0.1235 -0.3366
 3521TP3     H110575   2.536   1.574   0.187 -0.9651  0.9047 -0.5566
 3521TP3     H210576   2.646   1.594   0.289 -0.9694 -0.3353 -0.2987
 3522TP3      O10577   2.959   2.178   0.181 -0.2029  0.5218  0.1616
 3522TP3     H110578   3.019   2.222   0.242 -0.5826  1.2967 -0.0097
 3522TP3     H210579   2.906   2.249   0.145  0.8495  0.2822 -2.0489
 3523TP3      O10580   2.709   4.521   5.843  0.9534 -0.5106  0.1760
 3523TP3     H110581   2.636   4.494   5.898  0.7271 -1.0677 -0.3748
 3523TP3     H210582   2.763   4.576   5.899 -0.1640  0.3551  0.4348
 3524TP3      O10583   2.171   2.277   5.400 -0.6871  0.3734  0.2080
 3524TP3     H110584   2.112   2.288   5.475 -0.5913  0.9049  0.2092
 3524TP3     H210585   2.169   2.362   5.356  1.2507  0.9260  1.0719
 3525TP3      O10586   4.127   3.415   5.602  0.0197  0.0143  0.2081
 3525TP3     H110587   4.101   3.325   5.622 -0.1921 -0.1003 -0.5415
 3525TP3     H210588   4.210   3.427   5.650  0.1345 -0.6295  0.1879
 3526TP3      O10589   1.773   3.318   5.015 -0.1061 -0.0620 -0.0163
 3526TP3     H110590   1.757   3.224   5.023  0.7849 -0.4633 -2.3552
 3526TP3     H210591   1.733   3.343   4.932 -0.2675  1.6534  0.5191
 3527TP3      O10592   3.708   2.105   0.389 -1.2276  0.7129  0.0714
 3527TP3     H110593   3.710   2.110   0.484 -0.2650 -0.3222  0.1251
 3527TP3     H210594   3.714   2.196   0.360  1.0608  0.9148  0.9892
 3528TP3      O10595   3.765   3.219   5.803 -0.3889 -0.2264 -0.2883
 3528TP3     H110596   3.688   3.183   5.848 -0.1855 -2.1448 -1.3704
 3528TP3     H210597   3.732   3.241   5.715  0.2087 -0.7679 -0.6547
 3529TP3      O10598   4.491   2.395   5.459  0.1437 -0.0001 -0.2826
 3529TP3     H110599   4.440   2.476   5.464  0.5159  0.1928  0.9418
 3529TP3     H210600   4.582   2.424   5.474  0.8152 -0.2062 -3.2700
 3530TP3      O10601   2.163   2.125   0.444 -0.2919 -0.1497  0.2416
 3530TP3     H110602   2.101   2.113   0.373  0.4413  0.4029 -0.5203
 3530TP3     H210603   2.234   2.063   0.426  0.6675  1.0860 -0.4389
 3531TP3      O10604   4.017   2.896   4.927 -0.4092  0.2828  0.2405
 3531TP3     H110605   3.935   2.936   4.898 -1.3874 -0.8381  1.3611
 3531TP3     H210606   3.991   2.832   4.994  1.6218  2.2743  3.1975
 3532TP3      O10607   1.476   3.315   5.871  0.0565  0.6011 -1.2583
 3532TP3     H110608   1.567   3.311   5.841  0.2566 -1.2972 -0.5448
 3532TP3     H210609   1.482   3.311   5.966 -0.7876 -1.0336 -1.2426
 3533TP3      O10610   4.072   2.762   5.649 -0.2849  0.1412  0.2385
 3533TP3     H110611   4.164   2.783   5.663 -0.5477  0.5549  1.5499
 3533TP3     H210612   4.045   2.819   5.577  0.3943  0.2791  0.0862
 3534TP3      O10613   4.157   4.517   5.287 -0.0897  0.3255 -0.2038
 3534TP3     H110614   4.143   4.548   5.377 -2.0256  3.0412 -1.3113
 3534TP3     H210615   4.251   4.497   5.284  0.3980  1.8019  1.9708
 3535TP3      O10616   2.681   4.115   5.851 -0.3307 -0.9098  0.1383
 3535TP3     H110617   2.625   4.139   5.777  0.1102  2.7552  0.7763
 3535TP3     H210618   2.626   4.126   5.928  0.8977  2.1642  0.7301
 3536TP3      O10619   2.767   1.597   5.237  0.6161  0.0190  0.1014
 3536TP3     H110620   2.695   1.605   5.174  1.8670  0.5369 -1.3225
 3536TP3     H210621   2.724   1.599   5.323 -1.2806 -2.1337 -0.7072
 3537TP3      O10622   3.365   3.021   0.158 -0.0541 -0.7854 -0.9901
 3537TP3     H110623   3.398   3.095   0.209 -2.3851  0.6311 -1.3866
 3537TP3     H210624   3.415   2.946   0.190  1.5459  0.7376  0.2996
 3538TP3      O10625   2.022   1.789   5.739 -0.0517 -0.1403 -0.2334
 3538TP3     H110626   2.022   1.792   5.834 -1.2787  0.1757 -0.2209
 3538TP3     H210627   2.036   1.697   5.718 -0.3774 -0.3119  0.2771
 3539TP3      O10628   3.746   3.131   5.475 -0.2655 -0.1790 -0.2786
 3539TP3     H110629   3.670   3.143   5.418 -0.6807 -2.0400 -0.1629
 3539TP3     H210630   3.817   3.174   5.428 -0.9176 -0.3792 -1.4910
 3540TP3      O10631   3.899   3.257   5.301 -0.7718  0.0035 -0.4033
 3540TP3     H110632   3.841   3.323   5.263 -0.9344  0.5983  0.8332
 3540TP3     H210633   3.986   3.297   5.301 -0.9777  0.5300  0.9526
 3541TP3      O10634   2.996   3.270   5.635 -0.3804 -0.1402  0.4011
 3541TP3     H110635   3.072   3.275   5.577 -0.2141  0.8155  0.6852
 3541TP3     H210636   3.013   3.192   5.688  1.0151  0.7087  1.2793
 3542TP3      O10637   4.646   1.289   0.891  0.3842  0.1156  0.0173
 3542TP3     H110638   4.734   1.316   0.866  0.3243  0.3908  0.1069
 3542TP3     H210639   4.591   1.312   0.815 -0.1753  2.8748  1.1456
 3543TP3      O10640   3.047   2.485   0.084  0.9052  0.1586 -0.4996
 3543TP3     H110641   3.113   2.450   0.024  2.7531 -0.9613  1.9998
 3543TP3     H210642   3.068   2.446   0.169 -0.9881  2.3492  1.1243
 3544TP3      O10643   2.455   2.535   5.324  0.4615 -0.1517 -0.1270
 3544TP3     H110644   2.438   2.496   5.238  0.8356 -1.2873  0.3036
 3544TP3     H210645   2.400   2.614   5.325 -0.0971 -0.5045 -1.1240
 3545TP3      O10646   1.662   3.048   5.511 -0.0795  0.0511 -0.5172
 3545TP3     H110647   1.593   3.049   5.577  0.8138 -2.0452  0.5407
 3545TP3     H210648   1.690   3.139   5.505 -1.4439  0.5892  0.6176
 3546TP3      O10649   2.009   2.214   5.617  0.1656 -0.3427 -0.2362
 3546TP3     H110650   1.924   2.172   5.604  0.1352 -0.3252 -0.0958
 3546TP3     H210651   2.064   2.146   5.656 -0.2318  0.0880  1.1300
 3547TP3      O10652   1.793   2.336   5.977  0.8549 -0.1628  0.2561
 3547TP3     H110653   1.756   2.358   5.892  0.9069 -0.1124  0.2464
 3547TP3     H210654   1.773   2.411   6.033  0.9797 -0.1170  0.2390
 3548TP3      O10655   3.150   2.358   0.304 -0.7052  0.2396  0.0781
 3548TP3     H110656   3.233   2.312   0.293 -1.7461 -1.3445 -1.9248
 3548TP3     H210657   3.135   2.359   0.398  0.4519 -1.5925  0.3351
 3549TP3      O10658   3.717   2.887   5.614  0.0521 -0.8171 -0.0915
 3549TP3     H110659   3.732   2.976   5.584  2.0454 -0.7334  0.9661
 3549TP3     H210660   3.623   2.873   5.604 -0.2799  1.3619 -0.3592
 3550TP3      O10661   1.525   2.149   0.750  0.5129  0.1295  0.0667
 3550TP3     H110662   1.516   2.059   0.781  1.3835 -0.0915 -0.2930
 3550TP3     H210663   1.608   2.150   0.702  1.0275  1.3629  0.9141
 3551TP3      O10664   1.668   2.409   0.619 -0.2780 -0.0060  0.3789
 3551TP3     H110665   1.628   2.492   0.647  1.1858  0.9895 -0.3820
 3551TP3     H210666   1.751   2.405   0.666 -0.3367 -1.0818  0.4201
 3552TP3      O10667   2.099   2.696   5.611  0.1545  0.1862 -0.6294
 3552TP3     H110668   2.059   2.619   5.650  0.1584 -0.4739 -1.8801
 3552TP3     H210669   2.047   2.770   5.645  0.7561 -0.2540  1.3317
 3553TP3      O10670   4.356   1.841   5.384  0.2173 -0.0121 -0.8183
 3553TP3     H110671   4.286   1.880   5.437  1.1589  1.0707 -0.3227
 3553TP3     H210672   4.321   1.841   5.294  0.2722  2.2849 -0.8901
 3554TP3      O10673   2.705   3.774   5.314  0.0291 -0.6777 -0.0854
 3554TP3     H110674   2.636   3.830   5.278  0.0534 -1.5130 -1.5082
 3554TP3     H210675   2.759   3.833   5.366 -1.1521  0.1957  0.2097
 3555TP3      O10676   2.895   3.685   0.059  0.5757 -0.4096 -0.8743
 3555TP3     H110677   2.980   3.728   0.063  0.9308 -1.1060 -0.7753
 3555TP3     H210678   2.833   3.751   0.092  1.1577 -0.1280 -0.3205
 3556TP3      O10679   3.038   3.755   5.766 -0.6716  0.9408 -0.3876
 3556TP3     H110680   3.029   3.844   5.799 -0.5915  0.6478  0.4452
 3556TP3     H210681   2.966   3.745   5.704 -1.5582  1.1114  0.5972
 3557TP3      O10682   3.068   3.048   5.750  0.5594 -0.0473  0.3027
 3557TP3     H110683   2.979   3.013   5.760  0.2714 -0.2706 -2.3309
 3557TP3     H210684   3.118   3.005   5.819 -1.1314 -0.8328  1.1026
 3558TP3      O10685   2.663   3.578   1.875  0.2460  0.9312  0.0517
 3558TP3     H110686   2.598   3.538   1.817 -0.2380  0.2037  1.0725
 3558TP3     H210687   2.735   3.602   1.817 -1.0179  2.0011 -1.1577
 3559TP3      O10688   1.546   3.084   0.611  0.2420  0.0005  0.1067
 3559TP3     H110689   1.482   3.016   0.589 -0.5636  0.1031  1.8951
 3559TP3     H210690   1.512   3.163   0.568  1.0586 -0.6351 -1.7840
 3560TP3      O10691   2.540   3.165   5.777 -0.5252 -0.7627  0.2111
 3560TP3     H110692   2.591   3.151   5.857 -0.6089 -0.4806  0.3157
 3560TP3     H210693   2.449   3.152   5.804 -0.6988  0.9815  0.5613
 3561TP3      O10694   2.189   2.060   5.836 -0.2309  0.2865 -0.6030
 3561TP3     H110695   2.234   1.986   5.877  3.5031  2.3373 -0.5413
 3561TP3     H210696   2.201   2.045   5.742 -2.6717 -0.8775 -0.8096
 3562TP3      O10697   2.867   4.203   0.044 -0.0659  0.2063  0.2050
 3562TP3     H110698   2.817   4.203  -0.038 -0.8075  0.5458  0.6516
 3562TP3     H210699   2.822   4.266   0.100 -0.1140 -0.6916  1.2081
 3563TP3      O10700   2.546   2.598   0.081  0.1214  0.2766 -0.6070
 3563TP3     H110701   2.464   2.592   0.130 -0.5876  1.4732 -1.5709
 3563TP3     H210702   2.551   2.515   0.033 -0.1158 -0.1327  0.0718
 3564TP3      O10703   2.763   3.538   5.863  0.0686 -0.0825 -0.0975
 3564TP3     H110704   2.811   3.591   5.926 -2.0399 -0.5494  2.0329
 3564TP3     H210705   2.785   3.576   5.778  2.6432  0.8850  0.9047
 3565TP3      O10706   2.731   2.791   0.087  0.8055 -0.0703  0.4887
 3565TP3     H110707   2.782   2.793   0.169  1.8804  0.3178 -0.1682
 3565TP3     H210708   2.648   2.750   0.112  0.9768  0.3339  1.8480
 3566TP3      O10709   3.691   2.210   5.531  0.5509 -0.7444  0.2683
 3566TP3     H110710   3.737   2.259   5.464  2.1294  1.3298  2.6964
 3566TP3     H210711   3.658   2.132   5.486  2.4462 -0.0119 -2.5991
 3567TP3      O10712   2.019   2.048   0.215 -0.1995 -0.6056  0.6431
 3567TP3     H110713   1.979   2.028   0.131  0.6561  1.4668 -0.3201
 3567TP3     H210714   2.113   2.040   0.199 -0.0571 -2.2504  2.0097
 3568TP3      O10715   3.288   3.079   0.464 -0.4221 -0.4351 -0.2642
 3568TP3     H110716   3.252   3.011   0.407 -1.9955  1.0110 -1.0975
 3568TP3     H210717   3.352   3.033   0.519 -1.8113 -2.6884 -0.3989
 3569TP3      O10718   1.848   3.865   0.228 -0.3465 -0.3562  0.5211
 3569TP3     H110719   1.787   3.938   0.237  1.4969  1.6848 -2.1711
 3569TP3     H210720   1.934   3.902   0.248  0.5623 -1.9791 -0.1576
 3570TP3      O10721   1.891   4.120   1.303  0.2870  0.0692 -0.2143
 3570TP3     H110722   1.926   4.084   1.221  0.5601 -2.0873  0.7602
 3570TP3     H210723   1.923   4.060   1.371  0.3451  1.9634  1.5399
 3571TP3      O10724   2.662   4.366   0.217 -0.3424  0.3792 -0.4956
 3571TP3     H110725   2.687   4.457   0.198 -0.7549  0.6421  0.1953
 3571TP3     H210726   2.682   4.355   0.310  0.2335 -0.4165 -0.7063
 3572TP3      O10727   2.311   5.457   1.598 -0.5042  0.5027  0.7265
 3572TP3     H110728   2.331   5.422   1.511  0.7946  2.0263  0.3708
 3572TP3     H210729   2.216   5.462   1.600 -0.5490  1.4293 -1.0475
 3573TP3      O10730   3.273   5.406   0.406 -0.7503  0.7356  0.2705
 3573TP3     H110731   3.279   5.437   0.496 -1.3841 -0.8312  0.8870
 3573TP3     H210732   3.198   5.452   0.370 -1.6171  0.0504  1.1384
 3574TP3      O10733   3.469   4.435   0.165 -0.0926 -0.2099 -0.3082
 3574TP3     H110734   3.425   4.375   0.224 -3.7238  0.8189 -1.7019
 3574TP3     H210735   3.429   4.520   0.183  0.6036  0.6283 -2.3930
 3575TP3      O10736   3.397   5.271   0.186 -0.3266  0.9703 -0.0866
 3575TP3     H110737   3.338   5.293   0.259 -1.2251  1.7887 -1.0226
 3575TP3     H210738   3.356   5.196   0.144  0.9633 -0.4552  1.0785
 3576TP3      O10739   1.217   4.554   1.642  0.2918 -0.7855 -0.2007
 3576TP3     H110740   1.246   4.644   1.658 -0.0628 -0.4327 -1.3982
 3576TP3     H210741   1.162   4.533   1.717 -0.2566  0.2900 -0.2821
 3577TP3      O10742   2.174   4.798   1.802  0.8738 -0.5721 -0.4005
 3577TP3     H110743   2.112   4.760   1.741  0.2656 -0.2250 -0.0078
 3577TP3     H210744   2.157   4.753   1.885 -0.6456  1.2889  0.3743
 3578TP3      O10745   2.031   4.829   0.707  0.3696  0.2672  0.2919
 3578TP3     H110746   2.086   4.782   0.645  0.4946  1.1161 -0.2495
 3578TP3     H210747   2.088   4.844   0.783 -0.2071 -2.0523  1.2544
 3579TP3      O10748   2.348   4.231   2.096  0.0247  0.4048 -0.2538
 3579TP3     H110749   2.370   4.295   2.029  2.4826  0.2117  0.2645
 3579TP3     H210750   2.428   4.180   2.107 -1.4036 -1.8242  0.3840
 3580TP3      O10751   2.869   5.098   0.988  0.4715  0.1793  0.4085
 3580TP3     H110752   2.913   5.174   1.026  0.5358 -0.1290  0.9660
 3580TP3     H210753   2.914   5.023   1.026 -0.3676 -0.1414  0.8079
 3581TP3      O10754   3.232   4.215   2.233 -0.0853 -0.2962  0.2859
 3581TP3     H110755   3.245   4.162   2.154  0.2700  0.5281 -0.2150
 3581TP3     H210756   3.217   4.150   2.302  0.2064 -1.0539 -0.3412
 3582TP3      O10757   2.140   3.788   1.804  0.3702 -0.3471 -0.4349
 3582TP3     H110758   2.101   3.723   1.862  2.1769 -1.7405 -0.6996
 3582TP3     H210759   2.099   3.772   1.719  0.8076 -1.1937 -0.4996
 3583TP3      O10760   3.855   4.572   1.902 -0.0390  0.2429 -0.4404
 3583TP3     H110761   3.807   4.540   1.825  2.5315  0.2680 -2.1585
 3583TP3     H210762   3.884   4.492   1.946  1.7991  0.1347 -1.7410
 3584TP3      O10763   1.158   0.199   0.453  0.0060 -0.4201 -0.1421
 3584TP3     H110764   1.244   0.190   0.412  0.1940 -1.1723  0.4063
 3584TP3     H210765   1.173   0.251   0.531  0.0198 -0.8093  0.1172
 3585TP3      O10766   2.166   4.927   2.172  0.2665  0.1872  0.0500
 3585TP3     H110767   2.215   4.846   2.184  0.7815 -0.0508 -2.9563
 3585TP3     H210768   2.075   4.902   2.188  0.4151 -1.0289 -0.8714
 3586TP3      O10769   2.954   5.238   0.290  0.1935  0.3114 -0.4102
 3586TP3     H110770   2.966   5.310   0.351  3.6153 -0.6974  0.2986
 3586TP3     H210771   2.964   5.277   0.203 -2.2240  1.3216 -0.3002
 3587TP3      O10772   2.186   4.505   0.807  0.1401  0.3391  0.2065
 3587TP3     H110773   2.275   4.530   0.782  0.1229  0.9077  0.7048
 3587TP3     H210774   2.185   4.511   0.902 -0.6486  1.0678  0.1645
 3588TP3      O10775   1.439   5.665   0.941 -0.8714  0.0444  0.0974
 3588TP3     H110776   1.494   5.610   0.997 -0.3270 -1.5005 -1.8322
 3588TP3     H210777   1.434   5.617   0.858 -1.7942  2.1209 -1.1255
 3589TP3      O10778   3.247   4.415   5.546 -0.0746 -0.2641  0.5515
 3589TP3     H110779   3.205   4.435   5.462  1.4876  0.5520 -0.0652
 3589TP3     H210780   3.177   4.374   5.598 -1.6267  1.0215 -0.4159
 3590TP3      O10781   3.450   4.224   0.757 -0.7216  0.3756 -0.1968
 3590TP3     H110782   3.511   4.266   0.696 -0.6975 -0.1023 -0.5076
 3590TP3     H210783   3.390   4.293   0.782 -0.6668  0.6024 -0.6830
 3591TP3      O10784   2.129   5.336   0.451 -0.9578  0.1280 -0.3022
 3591TP3     H110785   2.101   5.244   0.452 -0.8004  0.0810 -0.2189
 3591TP3     H210786   2.206   5.338   0.508 -1.5381  0.4981  0.4764
 3592TP3      O10787   4.263   5.197   5.612 -0.1620  0.0617  0.1539
 3592TP3     H110788   4.293   5.111   5.582  1.0116  0.3156  0.5228
 3592TP3     H210789   4.334   5.228   5.669 -0.7033  1.1422  0.2637
 3593TP3      O10790   2.401   4.611   5.503 -0.1009 -0.1827 -0.5477
 3593TP3     H110791   2.459   4.553   5.553 -0.0824 -0.6824 -1.1401
 3593TP3     H210792   2.450   4.693   5.496 -0.1551 -0.0617  0.3575
 3594TP3      O10793   3.671   4.060   1.219 -0.1271  0.2764  0.2651
 3594TP3     H110794   3.633   4.023   1.140 -0.1416 -1.0101  0.8566
 3594TP3     H210795   3.748   4.108   1.188 -1.7033  2.2776 -0.8526
 3595TP3      O10796   3.379   4.224   0.366 -0.0721 -0.7105  0.4215
 3595TP3     H110797   3.302   4.240   0.311 -0.0774 -1.4813  0.2026
 3595TP3     H210798   3.369   4.134   0.396  1.9453 -1.6679 -1.5261
 3596TP3      O10799   1.532   5.037   1.565  0.8853  0.5794  0.0693
 3596TP3     H110800   1.622   5.005   1.566  0.7063  0.0777  0.6829
 3596TP3     H210801   1.516   5.064   1.656  1.1275  2.7139 -0.4565
 3597TP3      O10802   2.000   5.266   0.221 -0.5890  0.1536  0.0268
 3597TP3     H110803   1.959   5.350   0.200 -1.2885 -0.0686  0.4917
 3597TP3     H210804   2.053   5.284   0.299 -1.5120 -0.0592  0.7110
 3598TP3      O10805   3.339   4.366   1.536 -0.2201 -0.1771 -0.2003
 3598TP3     H110806   3.250   4.330   1.533  0.6103 -2.3699  0.2140
 3598TP3     H210807   3.388   4.314   1.473  0.5923  1.6716 -1.1598
 3599TP3      O10808   1.714   3.727   0.740 -0.5686  0.2436  0.1937
 3599TP3     H110809   1.804   3.738   0.708 -0.5003 -0.1516  0.2509
 3599TP3     H210810   1.662   3.709   0.662 -0.3386 -1.1185  0.3323
 3600TP3      O10811   2.245   4.305   0.336 -0.1001 -0.3327 -0.2436
 3600TP3     H110812   2.248   4.352   0.420  2.2261  0.4111 -0.6793
 3600TP3     H210813   2.257   4.213   0.360 -1.4307 -0.3783  0.3531
 3601TP3      O10814   2.780   4.352   0.720 -0.5362 -0.0010  0.1169
 3601TP3     H110815   2.686   4.337   0.733 -0.2477 -1.2453  0.8763
 3601TP3     H210816   2.802   4.421   0.782 -1.0877  0.8908 -0.6393
 3602TP3      O10817   3.093   0.086   1.518 -0.1110  0.2152  0.2109
 3602TP3     H110818   3.025   0.093   1.451  0.2577  1.1258 -0.0729
 3602TP3     H210819   3.063   0.015   1.575 -1.2958  0.5861  0.0753
 3603TP3      O10820   2.277   3.965   1.642  0.0832 -0.2238 -0.1160
 3603TP3     H110821   2.260   3.909   1.718  0.6338  0.2651  0.3837
 3603TP3     H210822   2.192   3.975   1.600 -0.2761 -0.3348  0.5651
 3604TP3      O10823   3.150   0.089   1.915  0.4008 -0.1171  0.0780
 3604TP3     H110824   3.085   0.036   1.961 -1.5465  0.8059 -1.4263
 3604TP3     H210825   3.205   0.026   1.869 -0.2836 -0.9179  0.3390
 3605TP3      O10826   3.171   5.700   0.372  0.2573  0.6217 -0.0014
 3605TP3     H110827   3.129   5.784   0.388 -0.3630  0.2993  0.0809
 3605TP3     H210828   3.264   5.715   0.391 -0.2532  0.5082  3.1566
 3606TP3      O10829   1.736   4.847   5.817  0.0469 -0.4339  0.0775
 3606TP3     H110830   1.734   4.943   5.815  0.5932 -0.4288 -0.7043
 3606TP3     H210831   1.658   4.822   5.866 -0.0116  0.4160  0.4276
 3607TP3      O10832   2.863   3.374   0.491  0.1028 -0.5644 -1.0080
 3607TP3     H110833   2.872   3.427   0.411  0.1413 -0.2230 -0.7827
 3607TP3     H210834   2.953   3.361   0.521  0.0360  1.6846  0.4950
 3608TP3      O10835   2.784   5.180   5.291 -0.1380 -0.3865 -0.6360
 3608TP3     H110836   2.710   5.119   5.292  0.2357 -0.8465 -0.0670
 3608TP3     H210837   2.775   5.230   5.373 -1.2238  1.3088 -1.7235
 3609TP3      O10838   1.832   3.806   2.182 -0.4011 -0.1265 -0.7302
 3609TP3     H110839   1.750   3.787   2.136  0.0271 -1.3386 -1.0470
 3609TP3     H210840   1.894   3.741   2.148  0.4551  0.2010  0.1502
 3610TP3      O10841   2.659   4.416   2.670 -0.5139 -0.0917  0.0183
 3610TP3     H110842   2.628   4.375   2.589 -1.5645 -0.1358  0.4385
 3610TP3     H210843   2.605   4.494   2.680  2.6894  2.6334 -1.7992
 3611TP3      O10844   2.871   3.955   1.884  0.8021 -0.5899  0.0272
 3611TP3     H110845   2.791   3.923   1.842  0.2988  0.8535 -0.1398
 3611TP3     H210846   2.941   3.907   1.839  0.0561 -1.8636  0.1691
 3612TP3      O10847   2.493   3.808   1.331 -0.0289 -0.4084  0.3318
 3612TP3     H110848   2.466   3.807   1.240 -0.9604  0.4724  0.5802
 3612TP3     H210849   2.426   3.756   1.376  1.5194 -2.5832  0.2629
 3613TP3      O10850   3.442   3.623   0.699  0.4655 -0.2947 -0.2432
 3613TP3     H110851   3.353   3.590   0.690  0.9723 -2.0665  0.7012
 3613TP3     H210852   3.487   3.591   0.620  0.3765  0.2516 -0.5202
 3614TP3      O10853   1.887   4.605   1.100  0.8988 -0.3239  0.3222
 3614TP3     H110854   1.821   4.670   1.123  0.8457 -0.4895  0.6486
 3614TP3     H210855   1.839   4.540   1.049  1.3636  0.9103 -1.7975
 3615TP3      O10856   1.925   5.493   1.814  0.3900  0.2986 -0.3655
 3615TP3     H110857   1.855   5.428   1.821 -0.3086  0.9182 -1.2993
 3615TP3     H210858   2.006   5.442   1.815 -0.0343 -0.4019  1.1607
 3616TP3      O10859   2.728   3.922   0.183  0.9128  0.0423  0.1897
 3616TP3     H110860   2.660   3.856   0.169  0.0509  1.1998 -1.5160
 3616TP3     H210861   2.690   4.002   0.147  2.8998  0.9015 -0.0893
 3617TP3      O10862   3.986   4.395   2.569 -0.1200  0.6334 -0.4506
 3617TP3     H110863   4.054   4.394   2.501 -0.3942 -1.2820 -0.7694
 3617TP3     H210864   4.034   4.413   2.650  1.1464 -2.3472 -0.4100
 3618TP3      O10865   4.130   4.913   5.693 -0.3958 -0.6764  0.1737
 3618TP3     H110866   4.193   4.922   5.621 -0.6018 -0.1327  0.0549
 3618TP3     H210867   4.047   4.893   5.649 -0.4946 -0.4730  0.2675
 3619TP3      O10868   2.696   4.040   0.505  0.0667  0.0181  0.0518
 3619TP3     H110869   2.643   3.966   0.535 -0.4222  0.0585 -0.6979
 3619TP3     H210870   2.649   4.117   0.536 -0.2902  0.0518 -0.5546
 3620TP3      O10871   3.332   4.679   0.674 -0.2670  0.6997  0.0923
 3620TP3     H110872   3.330   4.595   0.629  0.9453 -0.4216  1.9748
 3620TP3     H210873   3.364   4.658   0.762  0.1089  3.1525  0.6101
 3621TP3      O10874   2.883   5.018   0.106 -0.2441  0.0277 -0.0259
 3621TP3     H110875   2.929   4.979   0.032  0.1940 -1.7615  1.1217
 3621TP3     H210876   2.943   5.084   0.140  1.2294 -1.7151  0.9565
 3622TP3      O10877   3.664   4.680   0.832  0.4182 -0.6346 -1.2919
 3622TP3     H110878   3.600   4.723   0.889  0.7746 -1.3570 -0.3148
 3622TP3     H210879   3.736   4.744   0.824  0.0553 -0.2481 -1.5251
 3623TP3      O10880   3.449   4.930   0.873  0.8305  0.0038 -0.0150
 3623TP3     H110881   3.451   5.018   0.910  1.3912 -0.0393  0.0704
 3623TP3     H210882   3.505   4.936   0.795 -0.7131  0.2173 -1.1669
 3624TP3      O10883   2.395   4.679   0.102 -0.2756  0.2289 -0.0775
 3624TP3     H110884   2.483   4.706   0.075  0.8237 -2.0396  1.0136
 3624TP3     H210885   2.403   4.661   0.195 -1.3501 -1.8997 -0.3389
 3625TP3      O10886   3.878   4.060   0.294 -0.4969  0.3831  0.5474
 3625TP3     H110887   3.855   4.101   0.211 -0.3049 -4.6382 -2.4022
 3625TP3     H210888   3.795   4.031   0.331 -0.3924 -1.8907 -0.7710
 3626TP3      O10889   2.206   4.590   1.396  0.0824 -0.7638  0.3560
 3626TP3     H110890   2.160   4.534   1.458 -1.2566  1.0388  1.1071
 3626TP3     H210891   2.297   4.591   1.426 -0.5455  0.1031  2.3813
 3627TP3      O10892   2.919   5.586   5.927  0.0104 -0.1998 -0.3132
 3627TP3     H110893   2.923   5.497   5.961  0.9037 -0.6138 -1.4367
 3627TP3     H210894   3.011   5.615   5.925 -0.2240  0.5580 -0.4347
 3628TP3      O10895   2.050   4.316   1.422 -0.2835 -0.2034  1.1912
 3628TP3     H110896   2.001   4.254   1.476  0.6008 -1.2537  0.8348
 3628TP3     H210897   2.006   4.315   1.338 -0.4036 -0.1858  1.2544
 3629TP3      O10898   3.253   5.503   0.009  0.4518 -0.4149 -0.0836
 3629TP3     H110899   3.226   5.591  -0.019  0.6995 -0.9612 -2.2132
 3629TP3     H210900   3.309   5.518   0.085  1.4402  1.3897 -1.0891
 3630TP3      O10901   2.609   0.752   0.469 -0.4748 -0.6056  0.2156
 3630TP3     H110902   2.671   0.726   0.537  0.3890 -1.5762 -0.8961
 3630TP3     H210903   2.631   0.696   0.395 -2.2767 -0.5157 -0.4210
 3631TP3      O10904   2.989   3.988   0.612  0.0550 -0.8192 -0.3917
 3631TP3     H110905   2.928   3.916   0.596  0.0597 -0.8945 -0.0740
 3631TP3     H210906   3.045   3.989   0.535 -1.1472  0.0747 -1.2927
 3632TP3      O10907   2.104   5.079   1.530 -0.3648 -0.1832 -0.1848
 3632TP3     H110908   2.085   5.008   1.470  1.3531  0.2461 -1.3116
 3632TP3     H210909   2.021   5.126   1.540 -1.2808 -1.7426 -0.1783
 3633TP3      O10910   2.937   5.825   0.817  0.6667 -0.0864 -0.0520
 3633TP3     H110911   2.919   5.750   0.760 -0.3801  1.4795 -1.9151
 3633TP3     H210912   2.873   5.816   0.888 -0.4439 -0.2043 -1.0328
 3634TP3      O10913   1.922   4.976   0.147 -0.4859  0.1389 -0.4303
 3634TP3     H110914   1.867   4.979   0.225 -1.0093  0.0015 -0.7924
 3634TP3     H210915   2.003   4.935   0.177 -0.9653 -0.6117 -0.1236
 3635TP3      O10916   4.236   4.181   1.998  0.3918  0.3235 -0.3770
 3635TP3     H110917   4.190   4.176   2.083 -0.1008  0.3197 -0.6378
 3635TP3     H210918   4.325   4.205   2.021  0.0145  1.3470  0.0775
 3636TP3      O10919   2.472   3.215   0.073 -0.1792 -0.0584 -0.4012
 3636TP3     H110920   2.546   3.156   0.054  0.6287  0.1877  1.7398
 3636TP3     H210921   2.404   3.158   0.108  0.9088  0.2760  2.4807
 3637TP3      O10922   1.851   4.744   2.770  0.0853 -0.5223 -0.3631
 3637TP3     H110923   1.879   4.835   2.779 -1.1240 -0.1258 -0.4130
 3637TP3     H210924   1.800   4.727   2.849 -0.1607 -0.9831 -0.6177
 3638TP3      O10925   2.804   0.590   1.511  0.4083 -0.0536  0.5047
 3638TP3     H110926   2.815   0.632   1.596  1.0772  0.5524  0.1319
 3638TP3     H210927   2.765   0.505   1.531  0.0702  0.2923  1.3674
 3639TP3      O10928   3.866   4.888   1.593  0.7646  0.8198 -0.0049
 3639TP3     H110929   3.940   4.944   1.574  2.1276 -0.9376 -0.1679
 3639TP3     H210930   3.861   4.828   1.519  1.7999 -1.6776  1.7979
 3640TP3      O10931   3.262   5.319   0.927  0.2919  0.4282 -0.4737
 3640TP3     H110932   3.287   5.385   0.992 -1.3475  1.5442 -0.9080
 3640TP3     H210933   3.298   5.237   0.961 -1.8596  0.6417  2.7565
 3641TP3      O10934   3.049   5.363   1.341 -0.0297  0.0033 -0.0690
 3641TP3     H110935   3.143   5.356   1.359 -0.0849 -0.6523 -0.0061
 3641TP3     H210936   3.009   5.299   1.399 -0.4787 -0.0355 -0.4179
 3642TP3      O10937   1.820   3.516   1.796  0.4031 -0.0219 -0.1880
 3642TP3     H110938   1.874   3.493   1.871  1.5771 -0.1923 -1.0497
 3642TP3     H210939   1.880   3.515   1.722 -0.7801 -0.1561 -1.1849
 3643TP3      O10940   3.439   4.692   4.703 -0.4932 -0.1689  0.1519
 3643TP3     H110941   3.415   4.761   4.765  1.6938  0.9761 -0.1845
 3643TP3     H210942   3.458   4.739   4.622  2.7995 -0.8582  0.3833
 3644TP3      O10943   3.138   4.177   5.321  0.3572 -0.1052  0.3945
 3644TP3     H110944   3.158   4.267   5.298 -0.6458 -0.2170 -1.1539
 3644TP3     H210945   3.219   4.129   5.304  0.7003  0.4004  0.5915
 3645TP3      O10946   2.815   3.655   1.465 -0.2333 -0.3471  0.5921
 3645TP3     H110947   2.753   3.717   1.503 -0.3126 -0.7788  1.1762
 3645TP3     H210948   2.805   3.576   1.518  0.0792 -0.7599  0.0409
 3646TP3      O10949   2.806   4.848   0.670 -0.5310 -0.0942 -0.2208
 3646TP3     H110950   2.803   4.941   0.694 -2.8285 -0.1049 -0.1663
 3646TP3     H210951   2.890   4.818   0.703 -0.1041  1.7707  0.5718
 3647TP3      O10952   2.511   4.692   1.420  0.0711  0.1303 -0.2099
 3647TP3     H110953   2.503   4.754   1.348 -2.6910  0.9777  0.7057
 3647TP3     H210954   2.465   4.734   1.493  1.0897 -1.5342  1.4969
 3648TP3      O10955   2.872   5.149   0.724 -0.0122 -0.2057  0.0124
 3648TP3     H110956   2.864   5.123   0.816 -0.8208 -1.9962 -0.5040
 3648TP3     H210957   2.908   5.237   0.726 -3.4446  1.3440  2.1789
 3649TP3      O10958   3.343   5.113   5.724 -0.2178 -0.5312 -0.2203
 3649TP3     H110959   3.328   5.206   5.741 -1.3944 -0.4785 -1.3117
 3649TP3     H210960   3.411   5.112   5.656  2.1713 -0.6321  2.0323
 3650TP3      O10961   1.610   4.697   1.440  0.4171  0.1275 -0.3950
 3650TP3     H110962   1.703   4.702   1.421  0.8273 -1.8935  0.7175
 3650TP3     H210963   1.605   4.703   1.536 -0.5663  0.0309 -0.4309
 3651TP3      O10964   2.807   3.464   0.936 -0.3384  0.2344  0.9048
 3651TP3     H110965   2.763   3.448   1.019 -0.3325  0.2295  0.9069
 3651TP3     H210966   2.743   3.514   0.885 -0.5271 -0.1784  0.7346
 3652TP3      O10967   2.413   3.788   1.062  0.0747 -0.2026  0.8170
 3652TP3     H110968   2.379   3.797   0.973 -0.0171 -0.8592  0.7804
 3652TP3     H210969   2.501   3.825   1.058 -0.2014  0.4556  0.6375
 3653TP3      O10970   3.809   3.463   1.010  0.1265 -0.7611  0.1586
 3653TP3     H110971   3.728   3.431   0.970  0.1062 -0.6243  0.0886
 3653TP3     H210972   3.843   3.527   0.947  0.1094 -0.5665  0.3455
 3654TP3      O10973   2.847   5.643   0.621 -0.3042  0.3843  0.3230
 3654TP3     H110974   2.822   5.716   0.564 -0.8586  0.9538  1.2703
 3654TP3     H210975   2.765   5.594   0.634 -0.0972  0.0314  0.3248
 3655TP3      O10976   4.227   4.067   1.147 -0.1544 -0.4487  0.0768
 3655TP3     H110977   4.210   4.053   1.054  0.8943 -0.1984 -0.1604
 3655TP3     H210978   4.285   4.143   1.150 -0.9804  0.1768  0.9949
 3656TP3      O10979   4.704   4.456   0.258  0.4951  0.2505  0.6066
 3656TP3     H110980   4.669   4.545   0.268 -0.3954 -0.0496  0.2989
 3656TP3     H210981   4.783   4.455   0.312 -0.1417  0.8739  1.5966
 3657TP3      O10982   2.220   0.385   0.977 -0.2591 -0.6756  0.4751
 3657TP3     H110983   2.289   0.349   1.032  0.8098 -0.0688 -0.4213
 3657TP3     H210984   2.215   0.324   0.903  0.9708  0.5043 -0.6261
 3658TP3      O10985   3.724   4.403   5.476  0.0853  0.1327  0.0995
 3658TP3     H110986   3.641   4.442   5.448  0.0996  0.1000  0.0115
 3658TP3     H210987   3.707   4.373   5.565  0.3589  1.2163  0.5317
 3659TP3      O10988   2.594   3.859   5.629  0.1911  0.4472 -0.2906
 3659TP3     H110989   2.534   3.803   5.580  2.8776 -1.8190 -1.2199
 3659TP3     H210990   2.566   3.948   5.607 -0.6906 -0.4709 -3.4597
 3660TP3      O10991   2.421   4.963   0.922 -0.1212 -0.3057 -0.7123
 3660TP3     H110992   2.449   5.054   0.935 -2.4314  0.3353  0.2299
 3660TP3     H210993   2.501   4.912   0.936  1.2321  1.5474 -1.2528
 3661TP3      O10994   3.139   5.523   2.299 -0.0957  0.0631  0.0854
 3661TP3     H110995   3.231   5.544   2.284 -0.6722  0.4894 -4.2811
 3661TP3     H210996   3.095   5.608   2.302 -0.3991 -0.1000  2.9153
 3662TP3      O10997   2.467   4.317   0.969  0.2429 -0.5200 -0.2941
 3662TP3     H110998   2.394   4.298   1.028 -0.2256 -0.3084 -0.7940
 3662TP3     H210999   2.543   4.324   1.027 -0.2170 -0.2393  0.2933
 3663TP3      O11000   3.361   5.358   1.943 -0.3071  0.5405  0.4503
 3663TP3     H111001   3.401   5.423   1.884  0.4327  0.8807  1.3111
 3663TP3     H211002   3.269   5.386   1.949 -0.5623  0.1182 -1.0420
 3664TP3      O11003   2.686   5.042   1.636 -0.3566  0.2624 -0.3884
 3664TP3     H111004   2.716   5.087   1.715  0.1260  1.2293 -1.0839
 3664TP3     H211005   2.667   4.953   1.664  0.3121  0.4438  0.7053
 3665TP3      O11006   2.621   5.117   1.138 -0.4028  0.0167  0.3291
 3665TP3     H111007   2.675   5.111   1.059  1.2731  0.7356  1.3639
 3665TP3     H211008   2.642   5.038   1.188 -3.6078 -1.9695 -1.1062
 3666TP3      O11009   3.014   4.227   1.219  0.4428  0.2030  0.6455
 3666TP3     H111010   3.021   4.165   1.147 -0.6025  0.9471 -0.1128
 3666TP3     H211011   3.097   4.218   1.266  1.1288 -0.3088 -0.6253
 3667TP3      O11012   3.186   5.148   0.647 -0.0029 -0.1896 -0.2738
 3667TP3     H111013   3.193   5.240   0.622 -2.8013  0.0766 -0.3647
 3667TP3     H211014   3.101   5.140   0.689  0.3635 -2.6685  0.1945
 3668TP3      O11015   1.719   5.030   5.347 -0.1280  0.4115  0.6136
 3668TP3     H111016   1.645   4.986   5.304  0.4194 -0.2843  0.3613
 3668TP3     H211017   1.793   4.971   5.332  0.6976  1.5760  0.0027
 3669TP3      O11018   1.956   5.056   0.976  0.4458  0.1646 -0.3773
 3669TP3     H111019   2.036   5.006   0.959  0.0189 -0.2473 -1.2746
 3669TP3     H211020   1.888   4.989   0.985  0.0362  0.5482 -0.5771
 3670TP3      O11021   3.593   3.036   0.885  0.0857  0.2662 -0.0249
 3670TP3     H111022   3.510   3.038   0.933 -0.2220 -1.1578 -0.4321
 3670TP3     H211023   3.660   3.025   0.953 -0.3263 -1.5165  0.1645
 3671TP3      O11024   3.302   5.474   1.140  0.5740 -0.3505 -0.3607
 3671TP3     H111025   3.231   5.516   1.189  2.0722  1.1144  0.6588
 3671TP3     H211026   3.329   5.401   1.196 -0.3127 -1.1334 -0.9167
 3672TP3      O11027   1.987   0.077   1.044 -0.0953 -0.4359 -0.4424
 3672TP3     H111028   1.913   0.097   1.101 -0.4942 -0.8392 -0.8097
 3672TP3     H211029   1.958   0.105   0.957  0.9028  1.1570 -0.3144
 3673TP3      O11030   2.336   3.343   0.937 -0.0112  0.2489 -0.2004
 3673TP3     H111031   2.262   3.291   0.967  1.3081 -1.8796 -0.3843
 3673TP3     H211032   2.334   3.336   0.842 -1.4113  2.9814 -0.4771
 3674TP3      O11033   3.565   5.573   0.657 -0.2003  0.7091  0.4721
 3674TP3     H111034   3.556   5.662   0.625 -0.8431  0.5629  0.2434
 3674TP3     H211035   3.481   5.553   0.698 -0.9831 -0.6528 -1.6214
 3675TP3      O11036   3.856   4.871   1.118  0.0307 -0.2153 -0.4683
 3675TP3     H111037   3.854   4.963   1.092 -1.5333 -0.0590  0.0725
 3675TP3     H211038   3.946   4.856   1.146 -0.0509  1.6252  0.9995
 3676TP3      O11039   4.351   5.227   0.142 -0.5999 -0.0812 -0.6229
 3676TP3     H111040   4.428   5.184   0.179  0.5106 -0.8016 -3.5117
 3676TP3     H211041   4.386   5.291   0.081 -2.2827  3.2586  1.5947
 3677TP3      O11042   2.509   5.729   0.043 -0.1050 -0.3390 -0.3472
 3677TP3     H111043   2.567   5.805   0.041  0.1994 -0.5806 -1.2163
 3677TP3     H211044   2.437   5.754  -0.015 -2.1892  0.9460  2.5660
 3678TP3      O11045   1.952   3.606   0.537  0.1678 -0.0902 -0.4939
 3678TP3     H111046   1.891   3.533   0.526  0.6610 -0.5813 -0.0369
 3678TP3     H211047   1.946   3.655   0.455 -0.6842 -0.2439 -0.5346
 3679TP3      O11048   3.009   4.694   1.478 -0.0277 -0.3147  0.2699
 3679TP3     H111049   3.045   4.731   1.397  1.7118  0.9389  1.5536
 3679TP3     H211050   2.953   4.762   1.513 -1.1511 -1.0340 -0.0590
 3680TP3      O11051   2.483   3.551   1.167  0.1657 -0.2042  0.0327
 3680TP3     H111052   2.441   3.627   1.125  0.6074 -0.7029 -1.3643
 3680TP3     H211053   2.577   3.568   1.159  0.2774 -1.1478 -0.7905
 3681TP3      O11054   1.982   3.933   1.562 -0.0166 -0.2765  0.6548
 3681TP3     H111055   1.989   3.862   1.499  0.8219  0.3754 -0.0027
 3681TP3     H211056   1.902   3.914   1.611 -1.4058 -0.1088 -1.4515
 3682TP3      O11057   2.698   4.366   1.142  0.1348  0.3937 -0.3388
 3682TP3     H111058   2.784   4.337   1.170 -0.4637  0.0011  1.1833
 3682TP3     H211059   2.637   4.322   1.201 -1.0409  1.6094 -0.5914
 3683TP3      O11060   3.483   5.255   0.587 -0.4044 -0.2835 -0.4386
 3683TP3     H111061   3.426   5.329   0.611 -0.7089 -0.8365  0.6074
 3683TP3     H211062   3.423   5.187   0.558 -0.1230 -0.1355 -1.3909
 3684TP3      O11063   3.288   3.756   0.463  0.0860  0.1135  0.4009
 3684TP3     H111064   3.217   3.770   0.400 -1.5071 -0.3486  2.0237
 3684TP3     H211065   3.259   3.682   0.516  2.6735 -1.3555 -0.0522
 3685TP3      O11066   1.794   3.720   1.105  0.0879 -0.3269  0.3450
 3685TP3     H111067   1.754   3.796   1.063  0.4261 -1.0414 -1.3296
 3685TP3     H211068   1.720   3.671   1.143 -0.6866 -1.4540 -2.4114
 3686TP3      O11069   1.760   5.391   2.118 -0.2232 -0.6846 -0.0142
 3686TP3     H111070   1.686   5.413   2.063  0.1180  0.6817  0.0561
 3686TP3     H211071   1.723   5.384   2.207 -0.1370  0.8322  0.1542
 3687TP3      O11072   2.975   4.498   1.171  0.1230  0.7365 -0.3779
 3687TP3     H111073   2.967   4.403   1.183  0.7695  0.4295 -2.0303
 3687TP3     H211074   3.067   4.512   1.149 -0.2656  1.5271 -1.6572
 3688TP3      O11075   3.086   4.140   1.930  0.0343 -0.5743  0.0298
 3688TP3     H111076   3.153   4.087   1.974  0.4500 -0.6816 -0.7189
 3688TP3     H211077   3.006   4.089   1.939 -0.0641 -0.2395  1.3256
 3689TP3      O11078   2.266   3.083   0.792  0.5685 -0.8591  0.3471
 3689TP3     H111079   2.287   3.117   0.705  0.0136 -0.2621  0.4353
 3689TP3     H211080   2.171   3.096   0.800  0.3582 -2.3156  0.4509
 3690TP3      O11081   4.391   4.294   5.327 -0.6114 -0.3711  0.3021
 3690TP3     H111082   4.323   4.285   5.393 -1.0615 -0.8185 -0.2174
 3690TP3     H211083   4.473   4.297   5.377 -0.9152 -1.0988  0.8557
 3691TP3      O11084   2.677   4.517   1.573 -0.5518 -0.2764 -0.7199
 3691TP3     H111085   2.760   4.504   1.528 -1.0334 -0.7764 -1.4775
 3691TP3     H211086   2.638   4.593   1.530  0.3380  1.1815  0.8902
 3692TP3      O11087   2.739   5.090   1.965  0.0860 -0.7624 -0.4664
 3692TP3     H111088   2.725   5.116   2.056 -0.7658 -1.2299 -0.4589
 3692TP3     H211089   2.834   5.082   1.957  0.1966 -0.2665  0.2506
 3693TP3      O11090   3.450   5.725   1.377  0.2085 -0.0645 -0.0087
 3693TP3     H111091   3.535   5.750   1.342  0.0116 -0.2948 -0.6588
 3693TP3     H211092   3.405   5.808   1.391  0.8119  0.1028  1.0626
 3694TP3      O11093   2.380   5.259   2.755 -0.3394  0.3335  0.5794
 3694TP3     H111094   2.343   5.293   2.674  0.7635  0.0530 -0.0796
 3694TP3     H211095   2.388   5.335   2.813 -1.3613  0.4915  0.5208
 3695TP3      O11096   4.052   4.382   5.720  0.8706 -0.2216  0.1151
 3695TP3     H111097   4.058   4.462   5.667  0.3773 -0.1157  0.2181
 3695TP3     H211098   3.958   4.367   5.730  0.8839 -2.0317 -1.7416
 3696TP3      O11099   3.592   4.674   5.933  0.1010  0.3664  0.0780
 3696TP3     H111100   3.562   4.765   5.926 -1.3646 -0.0203  0.8066
 3696TP3     H211101   3.518   4.622   5.902  0.8472 -0.5905 -0.1412
 3697TP3      O11102   2.579   4.568   1.839 -0.2260  0.6341  0.3555
 3697TP3     H111103   2.622   4.510   1.776  0.8397  1.8213 -0.0643
 3697TP3     H211104   2.615   4.542   1.924 -1.7944 -1.0886  0.5646
 3698TP3      O11105   2.062   3.980   1.106 -0.3982  0.1733  0.0315
 3698TP3     H111106   2.018   3.992   1.022 -0.3915 -2.2741 -0.4020
 3698TP3     H211107   2.155   3.982   1.084 -0.3531 -3.2746 -0.6370
 3699TP3      O11108   1.878   3.172   0.272 -0.1545 -0.3600 -0.2257
 3699TP3     H111109   1.896   3.202   0.183 -0.2504 -2.1999 -0.9089
 3699TP3     H211110   1.927   3.090   0.280 -0.1527 -0.2273  1.4209
 3700TP3      O11111   2.011   3.590   1.572 -0.5357  0.2683  0.0600
 3700TP3     H111112   1.996   3.581   1.478 -2.7182 -0.8433  0.4566
 3700TP3     H211113   2.089   3.538   1.589 -0.2148  0.3469 -1.0879
 3701TP3      O11114   3.620   4.092   0.422 -0.3872 -0.0391  0.6898
 3701TP3     H111115   3.545   4.034   0.436 -1.6845  0.5142 -2.7924
 3701TP3     H211116   3.582   4.180   0.418  0.8147  0.5159  1.0380
 3702TP3      O11117   2.405   5.332   1.373 -0.4486  0.1382 -0.7222
 3702TP3     H111118   2.336   5.307   1.311  1.7755  0.6150 -3.5857
 3702TP3     H211119   2.412   5.257   1.432 -2.5210 -0.4477 -1.1356
 3703TP3      O11120   2.990   0.260   0.867 -0.6903  0.2735 -0.4158
 3703TP3     H111121   3.028   0.233   0.951 -0.7679  0.5088 -0.3058
 3703TP3     H211122   3.037   0.340   0.845  0.2501 -0.4844 -1.2337
 3704TP3      O11123   3.320   4.436   1.813 -0.1291 -0.0184  0.5583
 3704TP3     H111124   3.355   4.401   1.730 -2.4966  1.2377 -1.0943
 3704TP3     H211125   3.352   4.526   1.815 -1.9644  0.6998 -0.2664
 3705TP3      O11126   2.159   4.610   1.070 -0.1401 -0.8118 -0.0301
 3705TP3     H111127   2.172   4.605   1.165 -0.7235 -1.1203  0.0416
 3705TP3     H211128   2.067   4.585   1.058 -0.4016  0.3767 -0.5744
 3706TP3      O11129   2.508   4.224   1.304  0.1836  0.0350 -0.6033
 3706TP3     H111130   2.482   4.257   1.389  0.1230 -0.2245 -0.5191
 3706TP3     H211131   2.537   4.134   1.321 -0.3234 -0.1974 -0.9322
 3707TP3      O11132   4.147   3.863   1.344  0.0261  0.4273  0.3855
 3707TP3     H111133   4.139   3.783   1.294 -0.0367 -0.8024  2.2500
 3707TP3     H211134   4.187   3.926   1.284  0.1897 -1.0268 -1.0825
 3708TP3      O11135   3.335   4.429   0.556  0.8052  0.5374  0.0809
 3708TP3     H111136   3.239   4.429   0.560  0.7143  0.2463 -1.2877
 3708TP3     H211137   3.357   4.340   0.526  1.2624  1.4548 -2.6313
 3709TP3      O11138   3.326   5.311   1.357 -0.5381 -0.0356 -0.3345
 3709TP3     H111139   3.326   5.232   1.410  0.0713  0.6611  0.7436
 3709TP3     H211140   3.407   5.356   1.380  0.6701 -0.5405 -3.1672
 3710TP3      O11141   2.394   5.283   2.065  0.4939 -0.0083 -0.0215
 3710TP3     H111142   2.423   5.192   2.068  0.2082 -0.0726  1.6297
 3710TP3     H211143   2.346   5.290   1.983  1.9406 -0.8880 -0.9805
 3711TP3      O11144   2.307   3.780   0.765  0.0934  0.0232 -0.1585
 3711TP3     H111145   2.304   3.752   0.674 -0.1953 -0.6750  0.0613
 3711TP3     H211146   2.216   3.778   0.794  0.0863  1.0004 -0.0706
 3712TP3      O11147   2.973   0.049   0.693  0.4703  0.8472  0.4816
 3712TP3     H111148   2.952  -0.035   0.735 -1.0645  0.2372 -1.4053
 3712TP3     H211149   2.949   0.115   0.758 -1.8737 -0.0661  0.6306
 3713TP3      O11150   2.407   5.385   0.672 -0.2217  0.0901  0.3029
 3713TP3     H111151   2.463   5.318   0.711  0.7949  0.8264  0.1576
 3713TP3     H211152   2.330   5.388   0.727 -0.3142 -1.2550  0.2640
 3714TP3      O11153   2.407   5.031   2.124  0.1311 -0.7381 -0.0060
 3714TP3     H111154   2.421   5.056   2.215 -0.1311 -0.3418 -0.0775
 3714TP3     H211155   2.329   4.975   2.126 -0.7294  0.4374 -0.1819
 3715TP3      O11156   2.658   4.834   0.951 -0.3334  0.4329  0.3763
 3715TP3     H111157   2.708   4.768   0.998 -0.4493  0.4816  0.5706
 3715TP3     H211158   2.667   4.810   0.859 -1.5681 -0.7015  0.5227
 3716TP3      O11159   3.005   3.935   0.293 -0.0509 -0.8963 -0.2144
 3716TP3     H111160   3.038   3.973   0.211 -0.8012  1.1795  0.3743
 3716TP3     H211161   2.910   3.946   0.288  0.0045  2.5998  2.2993
 3717TP3      O11162   4.182   5.459   1.728  0.1693  0.2592 -0.0880
 3717TP3     H111163   4.156   5.374   1.763  2.0613 -0.1088  0.5119
 3717TP3     H211164   4.274   5.449   1.704  0.3067  2.0025 -0.4829
 3718TP3      O11165   2.732   4.937   1.355  0.6549 -0.1967  0.0508
 3718TP3     H111166   2.680   4.978   1.425 -2.0047 -2.1686 -0.6068
 3718TP3     H211167   2.816   4.983   1.358 -0.0411  1.1656  3.1886
 3719TP3      O11168   1.589   5.463   1.105  0.6614 -0.3055 -0.4521
 3719TP3     H111169   1.627   5.376   1.097 -2.6191 -2.2256  1.9701
 3719TP3     H211170   1.637   5.504   1.177 -0.4936 -2.0233  1.4371
 3720TP3      O11171   2.435   5.469   2.277 -0.0336 -0.2269 -0.2812
 3720TP3     H111172   2.449   5.390   2.223  2.1408 -1.3190  1.6751
 3720TP3     H211173   2.438   5.437   2.367 -2.0907  1.7356  0.5683
 3721TP3      O11174   2.595   3.484   0.096 -0.8314  0.0848  0.5111
 3721TP3     H111175   2.650   3.488   0.018  0.0842  1.8720  1.2072
 3721TP3     H211176   2.631   3.411   0.147  1.0247  1.2757  1.0007
 3722TP3      O11177   3.694   4.642   0.187  0.3969 -0.0264 -0.5423
 3722TP3     H111178   3.652   4.662   0.103 -1.4099  2.3578  0.7880
 3722TP3     H211179   3.670   4.550   0.204 -0.1152 -0.2165 -2.1268
 3723TP3      O11180   1.904   4.464   0.537 -0.1176 -0.5483 -0.1237
 3723TP3     H111181   1.836   4.530   0.552 -0.7601 -1.6975  2.7506
 3723TP3     H211182   1.857   4.390   0.498  0.1331 -0.2157 -1.0787
 3724TP3      O11183   1.949   0.175   1.996  0.0956 -0.1780 -0.1692
 3724TP3     H111184   1.945   0.080   2.004 -0.7824 -0.2535 -1.2549
 3724TP3     H211185   2.017   0.202   2.058 -0.6134 -1.3637  1.1722
 3725TP3      O11186   3.119   4.373   0.968  0.0508  0.6473  0.2519
 3725TP3     H111187   3.082   4.373   0.880 -1.2081  0.1601  0.7487
 3725TP3     H211188   3.130   4.280   0.989 -0.1429  0.7437  0.7988
 3726TP3      O11189   2.768   4.697   1.184 -0.0643  0.4055 -0.3891
 3726TP3     H111190   2.758   4.754   1.261  1.2845  1.1369 -0.7069
 3726TP3     H211191   2.823   4.625   1.215 -1.5595 -0.6361 -0.0561
 3727TP3      O11192   2.997   4.928   5.878 -0.1616 -0.4635  0.0847
 3727TP3     H111193   3.016   4.844   5.835 -1.1484 -0.4310 -0.4341
 3727TP3     H211194   3.008   4.993   5.809 -0.7438 -0.3075  0.1365
 3728TP3      O11195   4.087   0.377   0.890  0.3607  0.1498  0.2828
 3728TP3     H111196   4.096   0.301   0.832  1.5487  1.8486 -1.9326
 3728TP3     H211197   4.173   0.386   0.931  0.7980  1.2853 -0.8352
 3729TP3      O11198   3.588   3.313   0.507  0.7428  0.2396 -0.0797
 3729TP3     H111199   3.619   3.295   0.595 -0.5988 -1.0201  0.1582
 3729TP3     H211200   3.495   3.335   0.518  0.2503 -1.1152 -1.2721
 3730TP3      O11201   2.243   4.210   0.699  0.2375 -0.1231  0.7025
 3730TP3     H111202   2.252   4.282   0.762 -1.4876 -0.8296  1.8315
 3730TP3     H211203   2.150   4.208   0.678  0.6757 -0.3377 -1.4187
 3731TP3      O11204   4.162   5.128   1.264 -0.1925  0.4432 -0.6105
 3731TP3     H111205   4.151   5.034   1.276 -0.3790  0.6382  0.9229
 3731TP3     H211206   4.135   5.144   1.173 -1.5233 -0.7613 -0.4509
 3732TP3      O11207   2.746   4.776   1.706  0.2717 -0.1116 -0.2190
 3732TP3     H111208   2.783   4.808   1.789  2.5208  0.7298 -1.4754
 3732TP3     H211209   2.690   4.703   1.732  2.6732 -1.3531  1.8580
 3733TP3      O11210   3.348   4.484   0.995  0.0191  0.4617 -0.1145
 3733TP3     H111211   3.337   4.576   0.971  0.7941  0.3550 -0.9222
 3733TP3     H211212   3.259   4.449   0.997 -0.4257  1.5373  1.5720
 3734TP3      O11213   3.073   5.946   0.432  0.4857 -0.0454  0.2899
 3734TP3     H111214   3.124   6.023   0.407 -0.7224  0.6510 -0.0702
 3734TP3     H211215   3.042   5.965   0.520  0.3676 -0.2253  0.2880
 3735TP3      O11216   1.806   5.932   1.641 -0.3859 -0.1273  0.2518
 3735TP3     H111217   1.769   5.915   1.727 -0.2344 -0.7196  0.2046
 3735TP3     H211218   1.839   6.021   1.646  0.2716 -0.4095  1.0395
 3736TP3      O11219   2.770   4.532   0.920  0.3099 -0.4401  0.0396
 3736TP3     H111220   2.740   4.468   0.985 -0.3178 -1.0920 -0.8645
 3736TP3     H211221   2.826   4.591   0.969 -1.5404  0.1457  1.5927
 3737TP3      O11222   2.045   5.021   5.133  0.3471 -0.0711 -0.1108
 3737TP3     H111223   1.996   5.084   5.081 -0.5286 -1.1105 -0.5773
 3737TP3     H211224   2.074   5.070   5.209 -1.8136  0.4955  0.4103
 3738TP3      O11225   2.742   4.051   1.259  0.0487 -0.1149  0.4398
 3738TP3     H111226   2.754   3.967   1.303  2.5032  0.4396  1.0215
 3738TP3     H211227   2.824   4.098   1.276 -0.3125  1.4872 -1.8473
 3739TP3      O11228   3.179   4.494   0.153  0.2896 -0.4679  0.0949
 3739TP3     H111229   3.158   4.509   0.061  1.0000  0.6441  0.1054
 3739TP3     H211230   3.097   4.511   0.199  0.1275 -0.2780 -0.2618
 3740TP3      O11231   3.475   3.962   1.403  0.1585  0.6977  0.0755
 3740TP3     H111232   3.521   4.028   1.352  0.6278  1.0508  0.9317
 3740TP3     H211233   3.472   3.998   1.492  0.0370 -0.2356  0.4636
 3741TP3      O11234   2.533   3.729   0.158 -0.0679  0.1067  0.3461
 3741TP3     H111235   2.562   3.637   0.149 -1.8842 -0.4727  0.0989
 3741TP3     H211236   2.498   3.751   0.071 -0.2609  0.8193  0.6003
 3742TP3      O11237   2.712   5.924   2.303  0.5711 -0.1981 -0.5517
 3742TP3     H111238   2.646   5.855   2.310 -0.1243  0.0912 -3.2069
 3742TP3     H211239   2.695   5.965   2.218  2.7626  1.3767 -0.3153
 3743TP3      O11240   3.095   3.845   1.758 -0.2235  0.2599 -0.2536
 3743TP3     H111241   3.095   3.883   1.671  0.5378  1.3458  0.2073
 3743TP3     H211242   3.187   3.846   1.785 -0.3247 -0.9578  0.1865
 3744TP3      O11243   2.315   4.532   1.750 -0.0236 -0.1786  0.0859
 3744TP3     H111244   2.276   4.617   1.769 -2.5931 -1.5894  1.8020
 3744TP3     H211245   2.407   4.542   1.773 -0.0948  2.3035 -0.4659
 3745TP3      O11246   3.174   4.465   2.071  0.8629 -0.1934  0.2264
 3745TP3     H111247   3.164   4.371   2.081 -1.6133  0.0127  0.1883
 3745TP3     H211248   3.201   4.477   1.979 -0.1695 -0.8055 -0.1662
 3746TP3      O11249   0.990   3.362   1.029 -0.2637 -1.2009 -0.3072
 3746TP3     H111250   1.037   3.322   0.956  0.4969 -1.2748  0.2060
 3746TP3     H211251   0.902   3.380   0.995  0.1176 -1.1119 -1.2729
 3747TP3      O11252   2.703   6.032   1.002  0.0532  0.1164 -0.2156
 3747TP3     H111253   2.777   5.975   1.022  0.2144 -0.8021 -3.0686
 3747TP3     H211254   2.628   5.988   1.043  0.4195 -1.3584 -1.0718
 3748TP3      O11255   2.478   3.970   1.956  0.3531 -0.6654 -0.3041
 3748TP3     H111256   2.554   3.966   2.013  0.0645 -1.4755  0.0509
 3748TP3     H211257   2.500   4.036   1.890  0.5465  0.5709  0.9472
 3749TP3      O11258   3.296   5.440   0.685  0.1337  0.1243  0.1668
 3749TP3     H111259   3.275   5.379   0.756  3.8571  0.3816  1.6902
 3749TP3     H211260   3.265   5.525   0.717  2.0048  0.2893  1.7680
 3750TP3      O11261   2.900   4.571   2.618  0.1064 -0.1523 -0.1870
 3750TP3     H111262   2.893   4.491   2.567 -1.6232  0.5767 -1.1709
 3750TP3     H211263   2.816   4.577   2.664  0.6369  0.5452  0.7104
 3751TP3      O11264   3.482   4.658   1.847 -0.0752  0.0056  0.6405
 3751TP3     H111265   3.551   4.614   1.798  0.1481  0.7328  0.2880
 3751TP3     H211266   3.528   4.711   1.912 -0.2798  0.7240  0.2124
 3752TP3      O11267   3.541   5.980   0.793 -0.3093  0.6839 -0.3827
 3752TP3     H111268   3.458   5.934   0.808 -2.5018  4.0513 -1.2070
 3752TP3     H211269   3.591   5.966   0.874 -1.8149 -1.0370  0.3203
 3753TP3      O11270   3.555   5.158   1.069 -0.5797  0.7192 -0.4252
 3753TP3     H111271   3.634   5.185   1.023  0.6804 -0.9632  0.6444
 3753TP3     H211272   3.574   5.173   1.161 -1.4880  0.2494 -0.1422
 3754TP3      O11273   2.571   4.652   0.539 -0.1868 -0.1773 -0.0099
 3754TP3     H111274   2.506   4.623   0.474 -1.0198  0.9047  0.3183
 3754TP3     H211275   2.523   4.656   0.621  0.7160 -0.9460  0.5846
 3755TP3      O11276   2.626   3.517   0.752  0.9647  0.6187  0.9132
 3755TP3     H111277   2.647   3.521   0.659  1.0716  2.1175  0.9847
 3755TP3     H211278   2.535   3.487   0.755  0.7826  1.0965  0.3047
 3756TP3      O11279   3.101   4.389   2.389 -0.1361  0.1618 -0.0395
 3756TP3     H111280   3.156   4.340   2.329 -0.9815 -0.7035 -0.1177
 3756TP3     H211281   3.056   4.323   2.441 -2.5734  0.7483 -1.2721
 3757TP3      O11282   4.119   4.571   1.170  0.2807 -0.2464 -0.3620
 3757TP3     H111283   4.058   4.512   1.125 -0.8535  0.1666  0.5733
 3757TP3     H211284   4.105   4.552   1.263 -1.0760  2.3383  0.0603
 3758TP3      O11285   3.260   4.754   0.973  0.2429 -0.2112  0.7416
 3758TP3     H111286   3.168   4.778   0.959  0.4313 -0.7954 -2.2089
 3758TP3     H211287   3.310   4.829   0.941  0.7759 -0.5978  0.6451
 3759TP3      O11288   2.175   0.998   0.680 -0.1048 -0.3224 -0.2335
 3759TP3     H111289   2.266   1.026   0.688  0.4277 -2.0186  0.0479
 3759TP3     H211290   2.154   0.962   0.766 -0.9541 -0.2265 -0.3924
 3760TP3      O11291   3.140   4.191   0.735  0.4308  0.2518  0.0699
 3760TP3     H111292   3.230   4.159   0.731  0.2500 -0.2068 -0.9557
 3760TP3     H211293   3.088   4.116   0.704 -0.2118  0.7895 -0.1631
 3761TP3      O11294   3.189   4.244   0.154  0.4774  0.4195 -0.2413
 3761TP3     H111295   3.189   4.340   0.161 -0.2585  0.3342  1.3304
 3761TP3     H211296   3.101   4.223   0.123 -0.7811  0.1122  3.1169
 3762TP3      O11297   4.403   4.430   1.457  0.2592  0.2389 -0.4500
 3762TP3     H111298   4.395   4.434   1.553 -2.0758 -0.5457 -0.5574
 3762TP3     H211299   4.315   4.411   1.426  0.7473  1.4694 -2.8632
 3763TP3      O11300   2.052   5.734   1.868  0.2455 -0.0174 -0.4324
 3763TP3     H111301   2.007   5.651   1.883  0.2331  0.2556  1.3205
 3763TP3     H211302   2.014   5.794   1.933  1.7707  0.7587 -0.2131
 3764TP3      O11303   3.252   4.122   1.382 -0.7305 -0.3442 -0.7309
 3764TP3     H111304   3.281   4.066   1.454 -0.8179 -1.2587 -1.4012
 3764TP3     H211305   3.274   4.074   1.303 -0.0797  0.9289 -1.3433
 3765TP3      O11306   2.712   5.348   1.875  0.5034 -0.0122  0.1489
 3765TP3     H111307   2.692   5.412   1.944  0.1134  1.1013 -0.9525
 3765TP3     H211308   2.695   5.263   1.916 -0.0936  0.6269  1.3034
 3766TP3      O11309   3.888   4.103   0.785  0.1823 -0.0550 -0.3800
 3766TP3     H111310   3.798   4.135   0.772  0.7415  1.8396  0.0474
 3766TP3     H211311   3.943   4.180   0.768  1.7355 -1.1698 -0.5855
 3767TP3      O11312   2.163   4.870   0.942  1.0039  0.1362  0.0476
 3767TP3     H111313   2.256   4.892   0.934  1.3117 -0.2051  2.1561
 3767TP3     H211314   2.162   4.792   0.997 -0.5040 -0.4692 -0.7913
 3768TP3      O11315   3.057   4.441   0.630 -0.3084 -0.1651  0.1436
 3768TP3     H111316   2.995   4.486   0.574 -1.6501  0.5035  2.0675
 3768TP3     H211317   3.013   4.359   0.654 -0.5467  0.3566  1.6000
 3769TP3      O11318   1.651   3.794   1.563 -0.2720 -0.2448 -0.3855
 3769TP3     H111319   1.556   3.788   1.571 -0.1441 -1.1556  0.5919
 3769TP3     H211320   1.671   3.885   1.582 -0.7314 -0.6090  2.1811
 3770TP3      O11321   3.139   5.862   1.147  0.2807  0.2243 -0.3356
 3770TP3     H111322   3.057   5.850   1.099  0.2803 -0.7130 -0.1258
 3770TP3     H211323   3.141   5.789   1.209  1.9053 -0.5564 -1.2467
 3771TP3      O11324   3.404   3.899   0.747 -0.5918  0.7135  0.6072
 3771TP3     H111325   3.445   3.824   0.703 -0.8858  1.1348 -0.4034
 3771TP3     H211326   3.333   3.860   0.798 -1.1002  0.3505 -0.3569
 3772TP3      O11327   3.361   4.006   0.498 -0.2211  0.1644  0.2929
 3772TP3     H111328   3.379   4.003   0.592 -0.2610 -1.4096  0.2738
 3772TP3     H211329   3.328   3.919   0.477  1.5912 -0.1617 -1.5403
 3773TP3      O11330   2.616   5.426   0.992  0.2651 -0.1768  0.5192
 3773TP3     H111331   2.525   5.455   0.990  0.3872  0.1929 -0.4835
 3773TP3     H211332   2.667   5.507   0.982  0.6535 -0.5361 -0.5281
 3774TP3      O11333   3.662   0.150   1.810  0.1474 -0.5553 -0.1080
 3774TP3     H111334   3.705   0.065   1.825 -0.0082 -0.8122 -1.0212
 3774TP3     H211335   3.581   0.127   1.763 -1.7126 -0.2202  2.6599
 3775TP3      O11336   3.759   3.542   5.937 -0.1006 -0.9983 -0.5863
 3775TP3     H111337   3.690   3.483   5.966  0.8124 -1.6251  0.3888
 3775TP3     H211338   3.840   3.492   5.949  0.8441  0.8989  1.5889
 3776TP3      O11339   3.560   4.652   1.406  0.2932 -0.3043 -0.2735
 3776TP3     H111340   3.535   4.579   1.350  2.2071 -1.1351 -0.1169
 3776TP3     H211341   3.580   4.723   1.346 -0.6916 -0.1741 -0.4678
 3777TP3      O11342   3.988   3.977   0.543 -0.3286 -0.7016 -0.1777
 3777TP3     H111343   3.988   4.018   0.456  0.7101  0.0422  0.1537
 3777TP3     H211344   3.956   4.046   0.602  0.0869 -0.8126  0.1857
 3778TP3      O11345   2.134   4.857   0.342 -0.5729 -0.3785 -0.3789
 3778TP3     H111346   2.225   4.880   0.324  0.5138 -2.6881  1.6952
 3778TP3     H211347   2.113   4.791   0.276 -0.8619  0.3126 -0.9963
 3779TP3      O11348   3.875   5.594   0.042  0.6281 -0.1811 -0.1929
 3779TP3     H111349   3.816   5.545   0.099  2.4380 -0.4929  1.4963
 3779TP3     H211350   3.905   5.530  -0.022  1.2729 -0.7276  0.6510
 3780TP3      O11351   2.015   4.319   1.720  0.5014 -0.3845  0.7129
 3780TP3     H111352   1.983   4.311   1.809 -0.3107  1.3334  0.6079
 3780TP3     H211353   2.104   4.282   1.723 -0.5635 -3.1889  1.5015
 3781TP3      O11354   1.918   3.324   3.046 -0.5295 -0.8228 -0.1940
 3781TP3     H111355   1.898   3.417   3.054  1.6089 -0.1516 -1.6486
 3781TP3     H211356   1.910   3.307   2.952  1.8379 -1.3379 -0.3651
 3782TP3      O11357   2.109   3.265   1.870 -0.0113  0.3122 -0.2814
 3782TP3     H111358   2.188   3.210   1.872 -0.3661 -0.2073 -0.2979
 3782TP3     H211359   2.048   3.217   1.814  0.0515  1.2654 -1.2077
 3783TP3      O11360   2.510   0.347   3.346  0.3474  0.0064  0.1471
 3783TP3     H111361   2.508   0.382   3.436  1.4770  0.6795 -0.0703
 3783TP3     H211362   2.583   0.286   3.345 -0.4256 -0.9495 -0.0087
 3784TP3      O11363   3.322   5.816   2.468  0.1484  0.7819 -0.6751
 3784TP3     H111364   3.307   5.729   2.431 -0.0960  1.2153 -1.6092
 3784TP3     H211365   3.258   5.872   2.425  0.8852  1.5996 -0.7380
 3785TP3      O11366   3.421   5.572   2.321 -0.3870  0.7422  0.1938
 3785TP3     H111367   3.460   5.493   2.358 -0.2540  0.4696 -0.5173
 3785TP3     H211368   3.495   5.622   2.288 -0.6484  0.0055 -1.5869
 3786TP3      O11369   3.935   4.074   1.626 -0.0443  0.5777 -0.0143
 3786TP3     H111370   3.892   4.038   1.703  0.2212  0.4673  0.0849
 3786TP3     H211371   4.027   4.080   1.651 -0.0083  0.8477 -0.2089
 3787TP3      O11372   2.442   3.914   2.926  0.7986  0.1852 -0.5220
 3787TP3     H111373   2.528   3.898   2.966 -0.0352 -1.7228  0.6048
 3787TP3     H211374   2.461   3.974   2.854  3.2327 -0.9596 -0.9342
 3788TP3      O11375   2.536   4.367   3.102  0.1692 -0.3028 -0.0048
 3788TP3     H111376   2.571   4.441   3.152 -0.6888  0.6953 -0.8312
 3788TP3     H211377   2.488   4.315   3.166 -1.7152  1.4594  0.1390
 3789TP3      O11378   2.284   4.745   2.384  0.7456 -0.4599  0.4221
 3789TP3     H111379   2.356   4.802   2.413  0.6216  0.7734 -1.5695
 3789TP3     H211380   2.205   4.786   2.419  0.8693 -1.0732  1.4670
 3790TP3      O11381   2.300   4.961   3.557 -0.8165 -0.3136  0.2157
 3790TP3     H111382   2.306   5.057   3.562  0.2087 -0.3705  0.2316
 3790TP3     H211383   2.331   4.931   3.642  0.2727 -0.6979 -0.3004
 3791TP3      O11384   2.984   5.315   2.179  0.4766  0.0251  0.3820
 3791TP3     H111385   3.037   5.379   2.226  0.6153  0.2069 -0.0236
 3791TP3     H211386   2.936   5.366   2.114  1.1511 -0.3772 -0.4508
 3792TP3      O11387   3.180   5.406   3.208 -0.1442  0.1331  0.3181
 3792TP3     H111388   3.255   5.459   3.183  1.9445 -1.6987  2.3159
 3792TP3     H211389   3.197   5.320   3.170 -0.7329 -0.5647  1.5613
 3793TP3      O11390   2.174   5.149   3.296  0.9792  0.1879  0.2434
 3793TP3     H111391   2.131   5.099   3.226  1.1595 -1.2274  1.1125
 3793TP3     H211392   2.170   5.091   3.372  2.7501  0.7923  0.8313
 3794TP3      O11393   3.885   3.198   2.562 -0.4898 -0.4823 -0.3248
 3794TP3     H111394   3.895   3.285   2.600  0.0558 -0.4158 -0.6096
 3794TP3     H211395   3.919   3.207   2.472 -2.5510 -0.4014 -1.1549
 3795TP3      O11396   1.856   5.598   2.875  0.1051 -0.2326  0.0312
 3795TP3     H111397   1.862   5.691   2.896 -0.3258 -0.4282  1.0755
 3795TP3     H211398   1.857   5.595   2.779  0.0132  0.8534 -0.0140
 3796TP3      O11399   2.564   4.725   4.004  0.0043 -0.3035 -0.4166
 3796TP3     H111400   2.637   4.771   4.044 -1.0888  0.1779  1.1267
 3796TP3     H211401   2.583   4.633   4.018  0.6883 -0.2243 -0.7574
 3797TP3      O11402   1.706   5.320   1.754  0.1748  0.3897  0.1183
 3797TP3     H111403   1.677   5.381   1.686 -1.4462 -1.0838 -0.5879
 3797TP3     H211404   1.625   5.289   1.794  0.9942 -0.8375  0.8812
 3798TP3      O11405   2.729   3.824   2.804 -0.0222 -0.3301 -0.4031
 3798TP3     H111406   2.755   3.735   2.828  2.3358  0.3150 -0.3428
 3798TP3     H211407   2.680   3.855   2.880  0.5199 -1.0356  0.2612
 3799TP3      O11408   3.187   4.955   3.380  0.5989 -0.2996 -0.3981
 3799TP3     H111409   3.181   4.966   3.475  1.0177  1.1694 -0.5152
 3799TP3     H211410   3.259   5.012   3.354  0.3675 -0.5395 -1.6386
 3800TP3      O11411   2.688   5.351   1.312  0.1141  0.4568 -0.0045
 3800TP3     H111412   2.596   5.372   1.327  0.2867  0.7355  0.7041
 3800TP3     H211413   2.686   5.278   1.250 -0.6296 -0.4300  1.0204
 3801TP3      O11414   2.553   4.048   3.699  0.0195  0.0013 -0.0593
 3801TP3     H111415   2.605   3.988   3.752  0.5403 -0.5419 -1.1532
 3801TP3     H211416   2.468   4.005   3.690 -0.0306  0.0386  0.2233
 3802TP3      O11417   2.652   4.967   3.395  0.2768  0.0227 -0.0213
 3802TP3     H111418   2.578   4.936   3.343  0.0661  1.5037 -0.6505
 3802TP3     H211419   2.613   5.024   3.462  0.6998 -0.5780  0.7493
 3803TP3      O11420   3.835   5.422   2.859  0.0438 -0.5123 -0.2172
 3803TP3     H111421   3.858   5.514   2.873  0.8292 -0.8819  1.0935
 3803TP3     H211422   3.851   5.380   2.944 -0.5131 -1.8221 -0.7325
 3804TP3      O11423   1.690   4.426   3.112  0.1594 -0.3987  0.4839
 3804TP3     H111424   1.621   4.381   3.064 -0.7856  1.3753  0.0888
 3804TP3     H211425   1.687   4.388   3.200 -1.3962 -0.3147  0.4963
 3805TP3      O11426   3.326   5.171   2.799  0.2139  0.1544 -0.1444
 3805TP3     H111427   3.379   5.157   2.721  1.1860  0.1366  0.5019
 3805TP3     H211428   3.236   5.170   2.767  0.5992  0.3190 -1.2846
 3806TP3      O11429   3.651   5.646   2.077 -0.2192 -0.3875 -0.3929
 3806TP3     H111430   3.745   5.634   2.086 -0.5618 -2.4676  1.1787
 3806TP3     H211431   3.623   5.578   2.016 -0.9026 -0.9724  0.5359
 3807TP3      O11432   1.928   4.611   3.285 -0.0426  0.3178  0.2270
 3807TP3     H111433   1.893   4.582   3.201 -3.0893 -1.0519  1.8373
 3807TP3     H211434   1.878   4.690   3.306  0.1905  0.2507  1.0850
 3808TP3      O11435   2.950   0.092   2.208  0.0641 -0.4798 -0.4950
 3808TP3     H111436   2.857   0.115   2.200  0.0314 -0.6165 -0.5033
 3808TP3     H211437   2.963   0.024   2.142  0.3602  0.1262 -1.0745
 3809TP3      O11438   3.149   5.702   3.756 -0.4964 -0.1643  0.3076
 3809TP3     H111439   3.240   5.710   3.783 -0.0327 -0.2532 -1.1250
 3809TP3     H211440   3.128   5.788   3.718  0.2102 -1.2199 -2.7555
 3810TP3      O11441   2.138   4.144   2.888 -0.5894 -0.3296  0.4037
 3810TP3     H111442   2.113   4.081   2.821 -2.8001 -0.7592  1.5389
 3810TP3     H211443   2.224   4.175   2.861 -1.2991 -0.6087 -2.5250
 3811TP3      O11444   1.727   4.009   3.263 -0.5189 -0.2928 -0.0209
 3811TP3     H111445   1.752   3.976   3.176 -3.1959 -0.5386 -0.7959
 3811TP3     H211446   1.662   3.946   3.294 -1.7376  1.3295  0.8648
 3812TP3      O11447   3.948   4.212   2.197 -0.0608  0.0115  0.2103
 3812TP3     H111448   3.854   4.211   2.176  0.0040  1.7372 -0.3540
 3812TP3     H211449   3.962   4.133   2.250 -1.8134 -0.3062  0.2614
 3813TP3      O11450   2.955   5.951   3.449  0.2893  0.2161  0.0575
 3813TP3     H111451   2.982   6.038   3.478  0.2295 -0.2740  1.7475
 3813TP3     H211452   3.023   5.893   3.482 -0.0784 -0.4619 -0.3571
 3814TP3      O11453   2.258   4.015   4.076  0.3810 -0.0253 -0.0469
 3814TP3     H111454   2.302   4.094   4.108  0.5123 -1.0189  2.4396
 3814TP3     H211455   2.299   3.943   4.124 -0.2509 -1.5609 -1.6891
 3815TP3      O11456   3.857   5.476   1.847  0.4127  0.0762  0.3552
 3815TP3     H111457   3.801   5.453   1.920  0.0750 -0.4173 -0.0509
 3815TP3     H211458   3.927   5.410   1.849 -2.1877 -3.1419 -2.6597
 3816TP3      O11459   2.952   5.946   2.785 -0.3439  0.0535 -0.1861
 3816TP3     H111460   2.880   5.904   2.832 -0.2056  2.0692  2.0486
 3816TP3     H211461   2.915   5.970   2.700 -1.7473 -0.4963  0.2456
 3817TP3      O11462   2.625   3.969   2.564  0.2101 -0.6246 -0.0313
 3817TP3     H111463   2.661   3.932   2.645  0.2643 -0.6694 -0.0756
 3817TP3     H211464   2.694   3.956   2.499  0.7546  0.7164  0.2536
 3818TP3      O11465   2.834   4.665   2.872 -0.0025  0.4149 -0.1623
 3818TP3     H111466   2.861   4.595   2.931 -0.2333 -0.3224 -0.9063
 3818TP3     H211467   2.879   4.646   2.789  0.2594  1.3832 -0.2633
 3819TP3      O11468   3.897   4.988   1.865 -0.0751  0.1185  0.1320
 3819TP3     H111469   3.966   4.926   1.885  0.7833  1.2025  0.6401
 3819TP3     H211470   3.867   4.964   1.778 -1.5492 -2.5924  1.2539
 3820TP3      O11471   1.168   4.022   3.731 -0.2415  0.3501 -0.1113
 3820TP3     H111472   1.113   3.967   3.675  1.5985 -1.6534 -0.0967
 3820TP3     H211473   1.211   4.082   3.670  2.3607 -2.3273 -1.1776
 3821TP3      O11474   3.715   4.483   3.161  0.1197  0.3442 -0.1035
 3821TP3     H111475   3.749   4.561   3.204  1.0957  1.5064 -2.7211
 3821TP3     H211476   3.626   4.506   3.135 -0.3761 -0.2563  1.0034
 3822TP3      O11477   2.721   4.576   4.880 -0.8315 -0.3320  0.3996
 3822TP3     H111478   2.786   4.619   4.935  1.2142 -1.2655 -1.1555
 3822TP3     H211479   2.641   4.627   4.894  0.7221  2.1954  0.7910
 3823TP3      O11480   2.434   4.203   3.268 -0.4614 -0.5792  0.4287
 3823TP3     H111481   2.438   4.111   3.293  0.4473 -0.9266 -0.8720
 3823TP3     H211482   2.400   4.248   3.345 -1.1792 -2.0356  0.9863
 3824TP3      O11483   3.186   4.594   2.569  0.3332  0.2101  0.1453
 3824TP3     H111484   3.094   4.607   2.592  0.7624  1.6850  1.2687
 3824TP3     H211485   3.188   4.513   2.519 -1.3102 -0.9639  1.8491
 3825TP3      O11486   1.923   2.829   3.369 -0.4834 -0.4273  0.2450
 3825TP3     H111487   1.939   2.861   3.281  0.3681 -0.7952  0.2574
 3825TP3     H211488   2.010   2.819   3.407 -0.8641  1.1323  1.6498
 3826TP3      O11489   2.488   0.072   3.804  0.1306  0.4381  0.2010
 3826TP3     H111490   2.487   0.052   3.897  1.6758 -0.1598  0.1184
 3826TP3     H211491   2.395   0.081   3.780 -0.2921  0.4045  1.7331
 3827TP3      O11492   2.635   4.175   1.746  0.2990  0.0674 -0.1561
 3827TP3     H111493   2.575   4.180   1.672  0.0775  0.0872  0.0217
 3827TP3     H211494   2.714   4.219   1.716 -0.3177  1.4291  0.1318
 3828TP3      O11495   3.590   4.633   4.063 -0.5580 -0.2759 -0.1399
 3828TP3     H111496   3.566   4.723   4.042 -0.4424 -0.2180 -0.0281
 3828TP3     H211497   3.583   4.586   3.980 -1.4535 -0.3509 -0.0241
 3829TP3      O11498   3.295   5.241   2.173 -0.1150  0.1506 -0.5471
 3829TP3     H111499   3.302   5.262   2.079  0.6314  0.1278 -0.5096
 3829TP3     H211500   3.212   5.279   2.200 -1.3390 -1.5842 -1.6574
 3830TP3      O11501   2.397   3.851   2.435 -0.7602  0.7837 -0.2935
 3830TP3     H111502   2.348   3.916   2.385  1.2601  3.0930  0.5255
 3830TP3     H211503   2.472   3.899   2.470 -0.4319 -1.4316  2.4279
 3831TP3      O11504   2.999   5.803   2.428 -0.2459  0.6031  0.7302
 3831TP3     H111505   3.017   5.888   2.469 -0.1484  0.8048  0.2855
 3831TP3     H211506   2.971   5.747   2.500  0.8937  0.6532  1.2481
 3832TP3      O11507   2.421   5.409   2.980  0.1089  0.0593  0.1945
 3832TP3     H111508   2.430   5.500   2.952 -0.1223 -0.0597 -0.2826
 3832TP3     H211509   2.370   5.413   3.061 -1.7992  0.2076 -0.9668
 3833TP3      O11510   4.086   4.212   3.048 -0.6794  0.5497  0.3388
 3833TP3     H111511   4.008   4.206   2.993  0.2715  0.0469 -1.0024
 3833TP3     H211512   4.068   4.152   3.120 -1.7155  0.7825  0.2875
 3834TP3      O11513   2.671   4.752   4.553 -0.5258  0.4686  0.1668
 3834TP3     H111514   2.682   4.699   4.475 -0.5205 -0.1323  0.5685
 3834TP3     H211515   2.754   4.744   4.600 -0.3766  1.1677  0.0304
 3835TP3      O11516   2.841   4.753   1.971  0.3139  0.3191  0.2024
 3835TP3     H111517   2.827   4.816   2.042  2.1843 -0.0401  0.9363
 3835TP3     H211518   2.935   4.737   1.971  0.3436  0.1070 -2.2035
 3836TP3      O11519   3.098   5.223   2.677  0.2145 -0.2329  0.8111
 3836TP3     H111520   3.068   5.237   2.587  2.6092 -1.1467 -0.2317
 3836TP3     H211521   3.018   5.213   2.728 -1.2579  1.5103 -0.9876
 3837TP3      O11522   2.090   5.441   3.721  0.1033 -0.4390 -0.1135
 3837TP3     H111523   2.039   5.520   3.703 -0.0842 -0.6892 -0.6966
 3837TP3     H211524   2.139   5.461   3.801 -0.2016  0.1411 -0.0717
 3838TP3      O11525   2.696   0.157   2.166  0.3010 -0.3932  0.2677
 3838TP3     H111526   2.697   0.220   2.094  0.2761 -0.0263  0.5841
 3838TP3     H211527   2.649   0.202   2.236 -0.1385 -0.9454  0.3342
 3839TP3      O11528   2.296   3.978   3.600  0.3080  0.8784 -0.6133
 3839TP3     H111529   2.363   3.962   3.534  0.5024 -1.9978  0.1273
 3839TP3     H211530   2.219   3.932   3.568 -0.2646  1.2830  0.1539
 3840TP3      O11531   3.231   4.776   1.251 -0.3237  0.2694  0.3953
 3840TP3     H111532   3.236   4.773   1.155  0.5792  0.2501  0.4305
 3840TP3     H211533   3.309   4.728   1.280 -0.5516  0.3401  1.1344
 3841TP3      O11534   2.959   5.663   2.673  0.1684  1.0178  0.0243
 3841TP3     H111535   3.017   5.588   2.687 -1.7888 -0.2863  1.7899
 3841TP3     H211536   2.998   5.734   2.723  1.8884  1.1523 -1.4208
 3842TP3      O11537   3.860   3.947   1.870  0.4463 -0.3281 -0.5973
 3842TP3     H111538   3.909   3.961   1.951  2.2849 -0.8742 -1.5457
 3842TP3     H211539   3.833   3.855   1.875 -0.2285 -0.1207 -0.2315
 3843TP3      O11540   1.751   5.187   2.936 -0.4684 -0.0274 -0.3533
 3843TP3     H111541   1.793   5.200   3.021 -1.8062  0.6947  0.2191
 3843TP3     H211542   1.714   5.273   2.915 -2.4028 -0.8406 -0.4174
 3844TP3      O11543   1.956   4.520   3.021  0.1027  0.1159 -0.4209
 3844TP3     H111544   1.956   4.592   2.958  0.2992  0.6517  0.1709
 3844TP3     H211545   1.864   4.508   3.044  0.0514  0.0589 -0.6609
 3845TP3      O11546   1.021   5.497   2.569 -0.1281 -0.0014  0.3242
 3845TP3     H111547   1.084   5.479   2.638 -1.5355 -1.1574  1.3604
 3845TP3     H211548   1.033   5.426   2.506 -0.8956 -0.6594  0.9062
 3846TP3      O11549   3.784   3.606   2.969  0.1154  0.2693 -0.1362
 3846TP3     H111550   3.834   3.528   2.947  0.4327  0.6819 -0.9033
 3846TP3     H211551   3.849   3.674   2.981 -0.2174  0.6605 -0.5108
 3847TP3      O11552   1.990   4.490   2.119 -0.6925 -0.4189 -0.1677
 3847TP3     H111553   1.922   4.428   2.092 -0.9866  0.7790 -2.4095
 3847TP3     H211554   1.949   4.543   2.186 -1.5471 -0.5385 -0.5849
 3848TP3      O11555   1.875   4.613   3.593  0.3453  0.0847  0.2166
 3848TP3     H111556   1.951   4.660   3.560 -1.4220  3.5113  0.5579
 3848TP3     H211557   1.855   4.657   3.676 -1.1959 -1.6410  0.8082
 3849TP3      O11558   2.399   4.712   2.956  0.4761  0.0017  0.0618
 3849TP3     H111559   2.474   4.705   3.016 -0.4542 -2.6937  1.0400
 3849TP3     H211560   2.322   4.704   3.013 -0.5211  0.6494 -1.1501
 3850TP3      O11561   2.890   4.140   3.034 -0.5372 -0.6087  0.0243
 3850TP3     H111562   2.873   4.077   3.103 -1.8245 -0.0811  0.2149
 3850TP3     H211563   2.822   4.123   2.969 -0.3057 -0.0595 -0.3642
 3851TP3      O11564   2.135   4.128   3.207  0.2502 -0.2975  0.5870
 3851TP3     H111565   2.195   4.203   3.198  0.3582 -0.5306 -0.8856
 3851TP3     H211566   2.107   4.109   3.117  0.4235 -2.1877  0.8958
 3852TP3      O11567   2.214   3.784   3.023 -1.1068  0.3111 -0.4715
 3852TP3     H111568   2.275   3.838   2.972 -0.6915  0.6754  0.3753
 3852TP3     H211569   2.206   3.703   2.973  0.8831 -0.1665 -0.1383
 3853TP3      O11570   2.052   3.626   2.467  0.4640  0.4493  0.3939
 3853TP3     H111571   2.128   3.640   2.525  1.4443  3.9917 -1.4460
 3853TP3     H211572   1.979   3.666   2.514  0.0700 -1.2393  1.3078
 3854TP3      O11573   3.153   5.199   1.698  0.4565  0.2992 -0.3478
 3854TP3     H111574   3.199   5.135   1.645  0.6791  0.7451 -0.6984
 3854TP3     H211575   3.118   5.149   1.772  1.6764 -0.0120  0.0465
 3855TP3      O11576   1.483   4.235   1.900 -0.6855  0.5711  0.5768
 3855TP3     H111577   1.577   4.252   1.907 -0.3290 -1.7133  2.1802
 3855TP3     H211578   1.478   4.151   1.854 -1.9832  0.8738  0.1369
 3856TP3      O11579   2.615   3.869   1.719 -0.1854 -0.2733 -0.0424
 3856TP3     H111580   2.555   3.865   1.794  0.0733 -0.3411  0.1618
 3856TP3     H211581   2.578   3.937   1.662 -1.8314 -1.9803 -1.1097
 3857TP3      O11582   2.624   4.387   3.577  0.5333  0.4952  0.4126
 3857TP3     H111583   2.622   4.470   3.529  1.8019  0.5034  0.3352
 3857TP3     H211584   2.533   4.359   3.581  0.3220  0.8054 -1.4744
 3858TP3      O11585   3.283   4.522   2.964 -0.1376  0.2037  0.0768
 3858TP3     H111586   3.299   4.450   2.903 -0.2804 -0.2064  0.5168
 3858TP3     H211587   3.207   4.494   3.015  0.3524  0.2694  0.8586
 3859TP3      O11588   2.221   3.930   2.019 -0.2716 -0.5035 -0.3971
 3859TP3     H111589   2.309   3.958   1.995 -0.8193  1.2154 -0.4703
 3859TP3     H211590   2.188   3.886   1.941 -0.3339  0.9379 -1.2048
 3860TP3      O11591   3.053   5.518   1.969 -0.0842  0.3247 -0.4923
 3860TP3     H111592   3.000   5.529   1.890  1.1200 -0.6263 -1.4693
 3860TP3     H211593   3.019   5.584   2.030 -1.7031  0.3963 -1.4295
 3861TP3      O11594   3.395   3.756   1.151 -0.7244  0.4872 -0.4834
 3861TP3     H111595   3.490   3.750   1.165 -0.6442  0.2967 -1.1063
 3861TP3     H211596   3.370   3.839   1.191 -0.5592 -0.1959  1.1435
 3862TP3      O11597   1.544   3.560   3.179 -0.3516 -0.2371 -0.1955
 3862TP3     H111598   1.495   3.568   3.261 -1.4953  1.9684 -1.0104
 3862TP3     H211599   1.525   3.641   3.132  0.0352 -1.5408 -2.7851
 3863TP3      O11600   2.409   3.941   3.340  0.2651  0.0363 -0.0564
 3863TP3     H111601   2.336   3.906   3.289  0.8483  0.2254 -1.0379
 3863TP3     H211602   2.474   3.871   3.338 -0.2984 -0.6077  1.7896
 3864TP3      O11603   1.564   5.794   2.852  0.0707 -0.5521  0.4504
 3864TP3     H111604   1.501   5.865   2.840 -0.0291  0.1511  3.9350
 3864TP3     H211605   1.535   5.726   2.791 -2.0017  1.0277 -0.4760
 3865TP3      O11606   2.338   3.558   3.466 -0.1957 -0.8172  0.6785
 3865TP3     H111607   2.258   3.606   3.488  0.4043  0.3222  0.4182
 3865TP3     H211608   2.307   3.480   3.420 -1.1619 -0.4515  0.6858
 3866TP3      O11609   2.597   5.045   2.702  0.2042  0.0583 -0.1246
 3866TP3     H111610   2.526   5.077   2.758 -0.4784 -2.3772  0.5561
 3866TP3     H211611   2.666   5.019   2.764  2.2693  3.3697 -0.8102
 3867TP3      O11612   3.210   4.140   2.680 -0.5099 -0.1364  0.1967
 3867TP3     H111613   3.282   4.203   2.689 -1.8270  1.4239  0.3746
 3867TP3     H211614   3.172   4.134   2.767  0.0012 -1.7508  0.3377
 3868TP3      O11615   3.343   4.595   2.281 -0.6284  0.3026  0.4134
 3868TP3     H111616   3.338   4.674   2.226  2.8981  0.7183  0.5038
 3868TP3     H211617   3.260   4.550   2.264 -2.1155  3.2165 -0.8386
 3869TP3      O11618   2.259   5.117   2.434  0.2413  0.2423  0.3883
 3869TP3     H111619   2.217   5.031   2.426  2.1610 -0.6474 -0.8635
 3869TP3     H211620   2.188   5.177   2.454 -1.4724 -1.3113 -0.7819
 3870TP3      O11621   3.219   4.865   1.787 -0.3252 -0.4455 -0.0752
 3870TP3     H111622   3.294   4.817   1.751  0.7839  0.7376  0.5593
 3870TP3     H211623   3.258   4.942   1.828 -1.7374 -0.6148  1.7280
 3871TP3      O11624   2.829   3.915   2.370  1.3439 -0.2071  0.5955
 3871TP3     H111625   2.823   3.938   2.278  1.2767 -0.0761  0.6324
 3871TP3     H211626   2.906   3.858   2.375  0.5074 -1.3842  0.2310
 3872TP3      O11627   2.739   4.863   2.327 -0.3104 -0.3290 -0.0177
 3872TP3     H111628   2.664   4.892   2.379  0.3566  0.1675  0.7008
 3872TP3     H211629   2.755   4.773   2.355 -0.2582 -0.2275  0.2784
 3873TP3      O11630   3.418   4.840   3.742  0.2060  0.4467  0.0681
 3873TP3     H111631   3.406   4.749   3.714 -0.9143  0.3622  0.7566
 3873TP3     H211632   3.331   4.878   3.738  0.5256  1.2685  0.5637
 3874TP3      O11633   2.654   4.762   3.070  0.4404 -0.4991  0.2265
 3874TP3     H111634   2.732   4.736   3.021  0.6583 -0.0040  0.3028
 3874TP3     H211635   2.645   4.856   3.053  1.3011 -0.0073  2.1796
 3875TP3      O11636   3.608   4.926   3.445  0.1024 -0.1666 -0.6346
 3875TP3     H111637   3.649   4.927   3.532 -0.7748 -0.6009 -0.2046
 3875TP3     H211638   3.529   4.874   3.457  0.5196 -1.1354 -1.9611
 3876TP3      O11639   3.040   4.809   3.190 -0.1738  0.2835  0.1128
 3876TP3     H111640   3.082   4.885   3.228 -0.6385  1.5721 -1.8046
 3876TP3     H211641   2.980   4.844   3.124 -0.4940 -1.7259 -0.7691
 3877TP3      O11642   2.952   4.599   4.159 -0.0681  0.5193 -0.0048
 3877TP3     H111643   3.003   4.525   4.193 -2.6011 -1.1837  0.3954
 3877TP3     H211644   2.970   4.600   4.065  1.6688  0.8486  0.2957
 3878TP3      O11645   2.521   4.271   2.439 -0.1327 -0.3810 -0.1064
 3878TP3     H111646   2.487   4.193   2.483 -0.3682 -1.3847 -1.9636
 3878TP3     H211647   2.449   4.335   2.445  0.0465 -0.2875  1.3951
 3879TP3      O11648   3.030   5.342   4.153 -0.4082 -0.7922 -0.5416
 3879TP3     H111649   3.106   5.285   4.169  0.5599 -0.0577 -2.2361
 3879TP3     H211650   3.011   5.380   4.238  0.6742 -1.5594  0.0733
 3880TP3      O11651   2.308   4.480   2.471 -0.5358  0.1435  0.1754
 3880TP3     H111652   2.262   4.485   2.555 -0.6887  1.1504  0.0433
 3880TP3     H211653   2.280   4.558   2.423 -0.8327 -0.6551 -1.0133
 3881TP3      O11654   2.223   3.650   2.701  0.4465 -0.6079 -0.1004
 3881TP3     H111655   2.290   3.633   2.634 -0.4314  0.3805 -1.2732
 3881TP3     H211656   2.233   3.578   2.763  3.0604 -0.1202  0.1528
 3882TP3      O11657   2.211   4.520   3.425 -0.0655  0.6986  0.0824
 3882TP3     H111658   2.193   4.512   3.332  1.1072 -2.3358  0.0185
 3882TP3     H211659   2.304   4.499   3.434 -0.1095  1.0678  1.9343
 3883TP3      O11660   1.773   5.287   3.204  0.1002 -0.4831 -0.6826
 3883TP3     H111661   1.802   5.231   3.276  1.4555  0.3222 -0.5677
 3883TP3     H211662   1.717   5.352   3.246 -0.3584 -0.9097 -0.6112
 3884TP3      O11663   2.212   4.576   2.728 -0.2202  0.0074 -0.1606
 3884TP3     H111664   2.214   4.494   2.776 -0.6867 -0.0839 -0.2934
 3884TP3     H211665   2.262   4.637   2.782  0.5084 -0.4763 -0.2776
 3885TP3      O11666   2.961   4.142   2.544 -0.0064  0.1535  0.5422
 3885TP3     H111667   3.041   4.127   2.595  1.2385  0.3438 -1.2513
 3885TP3     H211668   2.966   4.078   2.473 -0.0431  1.8825 -1.1180
 3886TP3      O11669   3.017   4.798   2.279  0.0941 -0.3013 -0.3526
 3886TP3     H111670   2.977   4.721   2.239  1.6374 -1.7747  0.8557
 3886TP3     H211671   2.944   4.842   2.323 -0.8435 -0.9201 -1.2398
 3887TP3      O11672   3.184   5.149   3.052 -0.3630 -0.0444  0.1512
 3887TP3     H111673   3.206   5.144   2.959  2.6466  0.6084  0.7226
 3887TP3     H211674   3.210   5.064   3.088  1.2939  0.6890  0.8235
 3888TP3      O11675   3.286   3.995   2.034  0.5185 -0.5251  0.1818
 3888TP3     H111676   3.279   3.914   1.984 -1.6911 -1.7698  2.2849
 3888TP3     H211677   3.361   3.982   2.091  0.3928 -0.9711  0.2493
 3889TP3      O11678   1.824   5.207   3.482  0.0017  0.0274 -0.0789
 3889TP3     H111679   1.812   5.255   3.564  0.0673  0.7228 -0.4727
 3889TP3     H211680   1.841   5.117   3.509 -2.2085 -0.2486  0.6479
 3890TP3      O11681   2.059   4.503   3.970 -0.0640  0.7089  0.0897
 3890TP3     H111682   2.085   4.436   3.906  1.2280  1.2831 -0.0157
 3890TP3     H211683   1.974   4.473   4.003 -0.8423  0.4817 -2.0013
 3891TP3      O11684   3.701   4.207   3.200 -0.3449  0.1767  0.3733
 3891TP3     H111685   3.700   4.300   3.178  2.0972  0.2254  0.1305
 3891TP3     H211686   3.611   4.188   3.227 -0.7043  2.8465  1.4431
 3892TP3      O11687   2.845   4.413   2.926  0.6078  0.2427  0.2142
 3892TP3     H111688   2.805   4.334   2.963  0.0038  0.0087 -0.8971
 3892TP3     H211689   2.821   4.411   2.834  0.8712  1.5599  0.0959
 3893TP3      O11690   2.158   4.087   3.801  0.6099 -0.1712 -0.3619
 3893TP3     H111691   2.185   4.055   3.886  0.8117 -0.8976 -0.6949
 3893TP3     H211692   2.229   4.062   3.742  1.4884  2.1232 -0.4195
 3894TP3      O11693   2.906   4.556   2.245 -0.2342 -0.0671 -0.2984
 3894TP3     H111694   2.923   4.509   2.327 -1.1270 -1.3493 -0.8173
 3894TP3     H211695   2.972   4.522   2.184 -0.1227  0.2463 -0.3545
 3895TP3      O11696   1.940   3.805   2.898  0.0062  0.1112 -0.7323
 3895TP3     H111697   2.027   3.843   2.913 -0.6359  1.6498 -0.7450
 3895TP3     H211698   1.931   3.801   2.803  0.3716 -0.8614 -0.7459
 3896TP3      O11699   3.183   4.009   2.422 -0.4806  0.3139  0.2118
 3896TP3     H111700   3.239   4.053   2.486 -0.1317 -0.1335  0.2235
 3896TP3     H211701   3.234   3.931   2.396 -1.4208 -0.5034  0.7764
 3897TP3      O11702   1.855   3.376   3.595  0.4673 -0.1516 -0.6799
 3897TP3     H111703   1.917   3.363   3.524  0.4166  1.1221 -0.9752
 3897TP3     H211704   1.800   3.449   3.566  0.6135  0.5723  0.7546
 3898TP3      O11705   1.336   4.700   3.383  0.7847 -0.3031  0.4830
 3898TP3     H111706   1.247   4.731   3.369  0.7633 -0.7203 -0.3886
 3898TP3     H211707   1.379   4.771   3.431 -0.0750 -0.1967  1.1196
 3899TP3      O11708   2.482   5.502   2.539  0.3204 -0.3292  0.0422
 3899TP3     H111709   2.427   5.579   2.555 -0.7055 -0.9672 -0.2968
 3899TP3     H211710   2.538   5.497   2.616  0.4111  0.7585  0.0700
 3900TP3      O11711   3.365   5.199   3.947  0.2322  0.0166 -0.3063
 3900TP3     H111712   3.281   5.213   3.991 -0.6233  1.0981 -2.1464
 3900TP3     H211713   3.424   5.263   3.987 -0.0183 -0.2480  0.4982
 3901TP3      O11714   1.340   3.875   2.926 -0.5409 -0.2942 -0.2086
 3901TP3     H111715   1.368   3.784   2.916  0.9491  0.0867  0.2705
 3901TP3     H211716   1.318   3.883   3.018 -1.0012 -0.2467 -0.3208
 3902TP3      O11717   4.309   3.806   2.059  0.4933  0.5908  0.6259
 3902TP3     H111718   4.296   3.757   1.977  0.2668  3.1684 -1.0063
 3902TP3     H211719   4.404   3.812   2.069  0.5342  1.0795 -0.0025
 3903TP3      O11720   2.792   4.024   3.281 -0.0923 -0.4064 -0.2816
 3903TP3     H111721   2.759   4.058   3.364  0.6500  1.8490 -0.8313
 3903TP3     H211722   2.862   3.964   3.306 -0.3583 -0.3178  0.7209
 3904TP3      O11723   2.306   0.036   2.811  0.6574 -0.4401  0.2073
 3904TP3     H111724   2.224  -0.004   2.837 -0.1356  1.0330  0.0700
 3904TP3     H211725   2.320   0.106   2.875  1.2357  0.0292 -0.4162
 3905TP3      O11726   3.864   5.314   4.149 -0.3124  0.0884 -0.0351
 3905TP3     H111727   3.861   5.291   4.056 -1.2221 -0.4241  0.1042
 3905TP3     H211728   3.895   5.235   4.192 -0.8326  0.0033  0.1881
 3906TP3      O11729   2.954   4.784   3.472 -0.2300  0.4564  0.1076
 3906TP3     H111730   2.958   4.757   3.381  0.2817 -2.1425  0.8181
 3906TP3     H211731   2.919   4.873   3.469 -2.2448 -0.2971 -2.4771
 3907TP3      O11732   3.679   4.217   2.188 -0.0695  0.0784 -0.0798
 3907TP3     H111733   3.620   4.158   2.141 -0.3268  0.4230 -0.2011
 3907TP3     H211734   3.648   4.305   2.164 -0.5959  0.2737  1.2112
 3908TP3      O11735   3.522   4.243   1.878  0.2303  0.3253  0.6761
 3908TP3     H111736   3.593   4.306   1.891 -0.2192  1.1068 -0.4839
 3908TP3     H211737   3.443   4.289   1.907  0.1918 -0.6244  2.1935
 3909TP3      O11738   2.964   5.165   2.423 -0.3753 -0.0042 -0.4962
 3909TP3     H111739   2.871   5.187   2.427 -0.1426  0.8572  2.2030
 3909TP3     H211740   2.999   5.220   2.352 -1.4830  1.5970  0.1456
 3910TP3      O11741   2.586   4.703   2.724 -0.2552  0.2277 -0.3291
 3910TP3     H111742   2.522   4.731   2.790 -0.1610  1.9366 -0.9205
 3910TP3     H211743   2.671   4.714   2.768 -0.2830 -1.8728  0.3938
 3911TP3      O11744   2.155   4.776   3.119  0.0571 -0.0766 -0.3327
 3911TP3     H111745   2.078   4.726   3.148 -0.0948  0.2635 -0.1437
 3911TP3     H211746   2.120   4.862   3.097  0.2606 -0.1689 -1.0271
 3912TP3      O11747   3.442   4.606   3.487 -0.6372 -0.2294 -0.0037
 3912TP3     H111748   3.410   4.604   3.396 -0.4290 -2.7727 -0.0938
 3912TP3     H211749   3.374   4.563   3.537 -1.2193  2.0537  1.2991
 3913TP3      O11750   2.970   3.627   3.763  0.7536  0.8069  0.2185
 3913TP3     H111751   2.985   3.582   3.680 -0.9334 -0.4041  0.5412
 3913TP3     H211752   3.053   3.673   3.780  1.7171 -0.3024 -1.2601
 3914TP3      O11753   1.937   5.113   2.342  0.2088  0.5064  0.0982
 3914TP3     H111754   1.847   5.096   2.312  0.6618 -2.1209  0.0068
 3914TP3     H211755   1.978   5.158   2.269 -1.1950  2.4160  0.4175
 3915TP3      O11756   1.974   0.527   3.641 -0.0979 -0.3249 -0.0067
 3915TP3     H111757   2.045   0.553   3.583 -0.7135 -0.0890 -0.6655
 3915TP3     H211758   1.970   0.432   3.633  0.6978 -0.4290  0.6953
 3916TP3      O11759   2.169   5.341   2.575 -0.2635 -0.3354  0.0092
 3916TP3     H111760   2.157   5.378   2.663 -2.4510 -3.8177  1.3856
 3916TP3     H211761   2.084   5.301   2.555  1.1980 -2.5465 -2.2258
 3917TP3      O11762   3.313   4.897   3.085 -0.3368  0.0949 -0.3551
 3917TP3     H111763   3.380   4.875   3.020 -0.3060 -2.9160  0.5774
 3917TP3     H211764   3.361   4.940   3.155  0.1013  0.6286 -0.9659
 3918TP3      O11765   1.081   5.445   2.900 -0.0783  0.1080  0.1432
 3918TP3     H111766   0.996   5.459   2.942  0.5885  1.5584  1.1350
 3918TP3     H211767   1.130   5.526   2.919  1.2965 -0.4257 -0.9444
 3919TP3      O11768   0.909   3.859   3.703  0.3303  0.8624 -0.3475
 3919TP3     H111769   0.934   3.768   3.717 -2.5903  0.2129  1.6155
 3919TP3     H211770   0.877   3.862   3.613  0.2665 -0.1242 -0.3665
 3920TP3      O11771   3.227   4.076   3.873 -0.1031  0.2683  0.2061
 3920TP3     H111772   3.216   4.162   3.914  0.8508  0.3856  0.2417
 3920TP3     H211773   3.311   4.082   3.828 -0.4989 -0.3160 -0.6386
 3921TP3      O11774   2.178   4.429   3.169  0.1146 -0.1891  0.3813
 3921TP3     H111775   2.089   4.460   3.152  0.6093  1.8119  1.1645
 3921TP3     H211776   2.220   4.432   3.083  0.4456  2.5365  0.5410
 3922TP3      O11777   3.568   3.801   2.880  0.3136 -0.5461  0.8317
 3922TP3     H111778   3.609   3.719   2.907 -2.5764 -2.7961 -0.9589
 3922TP3     H211779   3.479   3.796   2.915 -0.0840  1.6324  0.2822
 3923TP3      O11780   1.947   5.727   3.713  0.0927 -0.9849  0.0154
 3923TP3     H111781   1.916   5.693   3.796 -1.3521  0.8858  0.3131
 3923TP3     H211782   1.922   5.819   3.714 -2.4812 -1.4313 -3.5758
 3924TP3      O11783   3.183   4.409   3.537  0.4007 -0.3259  0.0798
 3924TP3     H111784   3.216   4.355   3.465 -1.9578  2.7694 -3.6508
 3924TP3     H211785   3.101   4.367   3.563 -1.4161  1.1698 -2.7904
 3925TP3      O11786   2.922   5.604   2.967 -0.1370  0.5004  0.2620
 3925TP3     H111787   2.918   5.509   2.970 -0.0879  0.4725 -0.4344
 3925TP3     H211788   2.832   5.632   2.984 -1.2530  0.1805 -4.0184
 3926TP3      O11789   2.022   4.593   1.633  0.2585  0.4974  0.1580
 3926TP3     H111790   1.953   4.588   1.567 -2.1779 -0.5628  2.5420
 3926TP3     H211791   2.045   4.502   1.651 -0.0330  0.6587  1.5388
 3927TP3      O11792   1.701   3.909   2.410 -0.8955 -0.2895 -0.0586
 3927TP3     H111793   1.742   3.900   2.324 -0.7471  0.4597 -0.0706
 3927TP3     H211794   1.626   3.967   2.396  0.0543  1.1632  0.5841
 3928TP3      O11795   2.622   4.551   3.288  0.6014 -0.6725 -0.1307
 3928TP3     H111796   2.595   4.585   3.373 -1.0300 -3.1806  0.4485
 3928TP3     H211797   2.653   4.628   3.240 -1.9006  1.4516  1.3978
 3929TP3      O11798   3.382   4.355   2.660  0.1921  0.2328 -0.3249
 3929TP3     H111799   3.446   4.393   2.599  1.4386 -1.2034  0.0333
 3929TP3     H211800   3.435   4.309   2.725 -1.1510  0.9227  1.3376
 3930TP3      O11801   3.473   5.944   3.058  0.0264  0.2768  0.1247
 3930TP3     H111802   3.466   6.033   3.023  1.2472  0.5973  0.6542
 3930TP3     H211803   3.388   5.927   3.099 -0.6109  0.7672 -0.9419
 3931TP3      O11804   3.828   5.259   3.188 -0.1499 -0.1543  0.0096
 3931TP3     H111805   3.884   5.302   3.252  0.9921  0.5382 -1.4002
 3931TP3     H211806   3.875   5.179   3.165  0.0809  0.2291 -0.8809
 3932TP3      O11807   2.240   5.801   3.329  0.3877  0.0283 -0.4207
 3932TP3     H111808   2.163   5.814   3.385  1.1637  0.9186  0.4821
 3932TP3     H211809   2.286   5.885   3.332  1.2288 -0.3873 -1.2081
 3933TP3      O11810   2.379   5.647   2.895  0.1676  0.0552  0.0534
 3933TP3     H111811   2.329   5.714   2.942 -1.6747 -0.2005 -1.4286
 3933TP3     H211812   2.395   5.685   2.809  0.3318 -0.8494 -0.3261
 3934TP3      O11813   3.854   3.500   2.563  0.1557  0.0559 -0.8344
 3934TP3     H111814   3.852   3.580   2.510 -0.5705  0.7279  0.1631
 3934TP3     H211815   3.947   3.484   2.578  0.2888  1.8671  0.5793
 3935TP3      O11816   2.532   5.215   2.428  0.0423 -0.1554 -0.2938
 3935TP3     H111817   2.440   5.190   2.433  0.1729 -0.6135 -0.1343
 3935TP3     H211818   2.569   5.187   2.512  0.0502  1.1837  0.1848
 3936TP3      O11819   1.580   5.468   3.720 -0.0563  0.3651 -0.2506
 3936TP3     H111820   1.620   5.383   3.740  2.3737  0.7815 -2.7390
 3936TP3     H211821   1.551   5.460   3.630  0.0742  2.1083 -0.4842
 3937TP3      O11822   2.383   4.367   2.882  0.1004 -0.7457 -0.1525
 3937TP3     H111823   2.437   4.392   2.957 -0.8602  0.4002  0.1980
 3937TP3     H211824   2.402   4.275   2.868  2.6308 -0.2578 -0.4554
 3938TP3      O11825   2.526   4.890   2.511  0.0367  0.1380 -0.3096
 3938TP3     H111826   2.526   4.955   2.582 -3.0231 -0.1018  0.0598
 3938TP3     H211827   2.546   4.807   2.555 -0.0017  0.2581 -0.0640
 3939TP3      O11828   2.499   5.619   1.973 -0.0772 -0.5571 -0.8258
 3939TP3     H111829   2.439   5.632   1.899 -1.2842 -2.7279 -0.3159
 3939TP3     H211830   2.446   5.574   2.039  2.0450 -2.3794 -0.2468
 3940TP3      O11831   3.654   4.760   3.221  0.5611  0.2622 -0.1026
 3940TP3     H111832   3.727   4.749   3.282 -0.5451  0.3432  1.2961
 3940TP3     H211833   3.616   4.845   3.244 -1.2879 -0.7115  0.7166
 3941TP3      O11834   4.030   4.946   2.828 -0.1023  0.3128 -0.8064
 3941TP3     H111835   4.027   4.998   2.908 -0.3987 -1.8248  0.6657
 3941TP3     H211836   4.121   4.949   2.801  0.3674 -0.2819  0.6008
 3942TP3      O11837   1.734   3.988   2.980 -0.1214  0.0454  0.4428
 3942TP3     H111838   1.794   3.916   2.959 -1.0319 -0.5293 -0.2691
 3942TP3     H211839   1.780   4.067   2.950  0.0537 -0.4319 -0.5914
 3943TP3      O11840   3.501   5.639   1.031  0.2337  0.1746  0.5243
 3943TP3     H111841   3.434   5.582   1.070  1.2627 -0.0803  2.0267
 3943TP3     H211842   3.456   5.722   1.016 -0.2866  0.2120  2.1002
 3944TP3      O11843   2.191   4.647   2.018 -0.0937 -0.1896 -0.7952
 3944TP3     H111844   2.126   4.591   2.062 -0.3376 -0.3480 -1.3469
 3944TP3     H211845   2.275   4.612   2.045 -0.2455 -0.6108 -0.8642
 3945TP3      O11846   2.498   4.720   2.062 -0.0679 -0.5785 -0.0445
 3945TP3     H111847   2.560   4.793   2.066 -1.8189  0.9638  0.0932
 3945TP3     H211848   2.513   4.681   1.976  0.4468  0.3638 -0.3965
 3946TP3      O11849   2.912   5.526   1.722 -0.3424  0.4175  0.1753
 3946TP3     H111850   2.836   5.475   1.747 -1.6596  2.1880 -0.0358
 3946TP3     H211851   2.887   5.568   1.640  1.8941 -1.0659 -1.3952
 3947TP3      O11852   1.782   4.941   3.157 -0.6308  0.2280 -0.5619
 3947TP3     H111853   1.789   4.911   3.248  0.0161  1.7175 -0.0885
 3947TP3     H211854   1.712   5.005   3.158 -1.0697 -0.2292 -1.2710
 3948TP3      O11855   3.768   4.481   2.882  0.0490  0.2628 -0.7628
 3948TP3     H111856   3.777   4.387   2.901 -1.2543 -0.0531 -1.6055
 3948TP3     H211857   3.793   4.524   2.964 -0.0632 -0.8440 -0.1186
 3949TP3      O11858   2.772   4.487   2.011  0.1587 -0.3764 -0.0093
 3949TP3     H111859   2.788   4.525   2.097  2.6818  0.2014 -0.6621
 3949TP3     H211860   2.825   4.539   1.951 -1.3471 -0.9061 -1.9264
 3950TP3      O11861   2.785   3.598   2.510  0.0774  0.3756  0.4801
 3950TP3     H111862   2.737   3.549   2.443  0.0449 -0.6028  1.2009
 3950TP3     H211863   2.849   3.650   2.461 -1.3842  1.3599 -0.4732
 3951TP3      O11864   2.847   5.197   1.450 -0.1384 -0.4575  0.1637
 3951TP3     H111865   2.800   5.270   1.410  1.0300  1.2628  1.7750
 3951TP3     H211866   2.792   5.171   1.525  0.2733 -0.0662  0.6069
 3952TP3      O11867   3.165   4.279   3.080 -0.3704 -0.5886  0.3002
 3952TP3     H111868   3.091   4.232   3.041 -0.2998 -1.0352  0.6920
 3952TP3     H211869   3.129   4.363   3.108 -0.4943 -0.3953 -0.4325
 3953TP3      O11870   1.473   4.068   1.018  0.0553 -0.1612 -0.5872
 3953TP3     H111871   1.513   4.100   1.099 -1.0775 -2.1093  0.8230
 3953TP3     H211872   1.424   4.144   0.985  1.0409  0.8521  0.1764
 3954TP3      O11873   0.920   3.654   3.287 -0.1623  0.2300 -0.2175
 3954TP3     H111874   0.892   3.742   3.311 -0.4892 -0.2167  1.1096
 3954TP3     H211875   0.857   3.596   3.331 -0.1713 -0.6641 -1.3581
 3955TP3      O11876   2.871   3.914   3.619 -0.0668 -0.3954 -0.1220
 3955TP3     H111877   2.932   3.924   3.692 -0.8588  0.2540  0.4717
 3955TP3     H211878   2.854   4.003   3.589  0.0138 -0.6398 -0.9066
 3956TP3      O11879   2.396   4.842   1.633 -0.2474  0.2609  0.7205
 3956TP3     H111880   2.337   4.901   1.679  0.8665  1.0254  1.2313
 3956TP3     H211881   2.437   4.790   1.703 -1.3180 -1.2585  0.2712
 3957TP3      O11882   2.829   5.201   3.311 -0.3574  0.3673 -0.3789
 3957TP3     H111883   2.784   5.118   3.328 -0.4945  0.5381  0.1135
 3957TP3     H211884   2.806   5.222   3.220 -1.6038  0.6418 -0.0265
 3958TP3      O11885   1.865   4.617   2.327 -0.5203 -0.2278 -0.6328
 3958TP3     H111886   1.944   4.625   2.379 -1.6458  0.2222  1.0794
 3958TP3     H211887   1.800   4.581   2.387 -1.3906 -1.5085 -2.2464
 3959TP3      O11888   2.130   5.089   1.895 -0.0155  0.1366  0.7291
 3959TP3     H111889   2.157   5.042   1.974  2.5257  0.6943  0.2916
 3959TP3     H211890   2.139   5.024   1.825 -1.9447 -0.2596  0.7890
 3960TP3      O11891   1.434   4.448   3.271 -0.5483  0.0621  0.3062
 3960TP3     H111892   1.454   4.477   3.182 -0.9549 -0.3332  0.0880
 3960TP3     H211893   1.411   4.529   3.317  0.4898  0.3845  0.2835
 3961TP3      O11894   2.761   5.503   2.469 -0.2419  0.3391  0.2984
 3961TP3     H111895   2.670   5.490   2.496 -0.5064  2.2613  0.4713
 3961TP3     H211896   2.784   5.589   2.503  1.0470  0.6844 -1.3441
 3962TP3      O11897   2.782   5.374   3.914  0.7635  0.4403  0.4103
 3962TP3     H111898   2.816   5.355   3.826 -0.3774  1.0621 -0.2071
 3962TP3     H211899   2.753   5.289   3.947 -0.0207  0.3801 -0.3842
 3963TP3      O11900   3.278   4.562   3.742 -0.3331  0.0233  0.3726
 3963TP3     H111901   3.244   4.507   3.672 -1.7903 -0.4620  1.4263
 3963TP3     H211902   3.226   4.642   3.738  1.0903  0.9491 -0.5001
 3964TP3      O11903   2.527   5.269   3.824 -0.3769  0.1875 -0.6263
 3964TP3     H111904   2.481   5.263   3.908  2.7272 -1.3666  1.0936
 3964TP3     H211905   2.578   5.350   3.831 -0.2262  0.1367 -1.1221
 3965TP3      O11906   2.744   4.837   4.163 -0.4890  0.2157  0.2987
 3965TP3     H111907   2.744   4.798   4.250 -0.7817  0.7034  0.5167
 3965TP3     H211908   2.771   4.928   4.177 -0.1897  0.1999 -0.1604
 3966TP3      O11909   3.452   3.478   2.355 -0.2526 -0.2494  0.0732
 3966TP3     H111910   3.498   3.558   2.380 -0.2653 -0.4674  0.8282
 3966TP3     H211911   3.512   3.407   2.378 -0.8011 -0.5181  0.7434
 3967TP3      O11912   1.714   4.408   2.738 -0.3257 -0.0477  0.0293
 3967TP3     H111913   1.749   4.356   2.810  0.5448  0.0017 -0.3540
 3967TP3     H211914   1.791   4.435   2.687 -0.8814  0.3932 -0.5985
 3968TP3      O11915   3.780   3.965   2.772  0.5704 -0.3893 -0.2073
 3968TP3     H111916   3.698   3.923   2.799  0.3030  1.5462  2.2532
 3968TP3     H211917   3.771   3.973   2.677 -1.5233 -1.3641 -0.1669
 3969TP3      O11918   3.547   4.917   4.066  0.0301 -0.5490 -0.5447
 3969TP3     H111919   3.558   4.989   4.004  0.6717 -0.6167 -0.5207
 3969TP3     H211920   3.571   4.955   4.150 -0.1445 -0.6504 -0.4503
 3970TP3      O11921   3.520   4.835   1.623  0.4142 -0.1327 -0.5554
 3970TP3     H111922   3.476   4.769   1.676  1.3616 -0.4170 -0.0997
 3970TP3     H211923   3.534   4.793   1.538 -2.8135  0.9534 -1.7769
 3971TP3      O11924   2.407   4.855   3.309 -0.4205  0.9697 -0.5314
 3971TP3     H111925   2.328   4.860   3.363  0.5614 -0.0099  1.0645
 3971TP3     H211926   2.374   4.846   3.220 -2.1042  1.0546  0.0453
 3972TP3      O11927   3.151   4.774   2.889 -0.3805 -0.1004  0.5727
 3972TP3     H111928   3.174   4.820   2.969  0.9955 -0.9408  0.7093
 3972TP3     H211929   3.191   4.687   2.899  1.0239  0.2147 -1.5652
 3973TP3      O11930   2.677   5.194   2.201  0.3887 -0.8531  0.0302
 3973TP3     H111931   2.632   5.175   2.283  0.5623 -0.4883  0.2113
 3973TP3     H211932   2.665   5.288   2.188  1.6239 -0.6259  0.4068
 3974TP3      O11933   3.835   5.680   2.777  0.4848 -0.2734  0.0043
 3974TP3     H111934   3.749   5.703   2.743  0.5184 -1.0745 -0.6652
 3974TP3     H211935   3.892   5.751   2.749 -0.0355  0.5259  0.8940
 3975TP3      O11936   1.915   4.833   3.806  0.2181 -0.4121  0.8000
 3975TP3     H111937   1.859   4.880   3.744  1.3994 -0.1048 -0.0666
 3975TP3     H211938   1.940   4.899   3.871 -1.7548 -0.9385  2.2004
 3976TP3      O11939   1.389  -0.007   2.792 -0.8087 -0.0385  1.0183
 3976TP3     H111940   1.423   0.075   2.755  1.3546 -0.7608  1.3250
 3976TP3     H211941   1.400   0.004   2.887 -0.0711 -0.8604  1.0316
 3977TP3      O11942   1.838   5.291   3.850  0.3827 -0.0324  0.9483
 3977TP3     H111943   1.879   5.340   3.921  0.3888 -0.1107  0.9983
 3977TP3     H211944   1.908   5.234   3.817  0.1235 -0.6792  1.4937
 3978TP3      O11945   3.883   3.821   3.245 -0.1677 -0.2007 -0.7015
 3978TP3     H111946   3.927   3.850   3.165  0.6180  0.1874 -0.1475
 3978TP3     H211947   3.952   3.779   3.297 -0.1653  1.3353  0.6449
 3979TP3      O11948   2.612   3.716   2.110  0.2669  0.1773 -0.2233
 3979TP3     H111949   2.656   3.657   2.048 -0.5183 -1.0295  0.3237
 3979TP3     H211950   2.632   3.804   2.079  2.2092 -0.3537 -0.5736
 3980TP3      O11951   3.570   5.145   2.298  0.6581 -0.5472  0.0497
 3980TP3     H111952   3.502   5.179   2.239  0.2167 -0.3840  0.6392
 3980TP3     H211953   3.534   5.063   2.330  1.3458 -1.1493 -0.6924
 3981TP3      O11954   1.669   4.748   2.980  0.4417 -0.2430 -0.1662
 3981TP3     H111955   1.596   4.702   3.022  0.5495  0.2786  0.6270
 3981TP3     H211956   1.681   4.827   3.033  1.4550 -0.2225 -0.3985
 3982TP3      O11957   1.607   5.272   2.604 -0.6788 -0.2539  0.4639
 3982TP3     H111958   1.616   5.211   2.677  0.3263  0.1264  0.6696
 3982TP3     H211959   1.517   5.305   2.612 -0.6573 -0.3847  1.3999
 3983TP3      O11960   2.427   4.121   2.735 -0.0120 -0.0364 -0.0315
 3983TP3     H111961   2.375   4.145   2.658  1.2591 -2.2628 -1.7185
 3983TP3     H211962   2.507   4.082   2.698  0.0723 -2.4378  2.3741
 3984TP3      O11963   3.316   4.283   3.304  0.6414  0.7537 -0.0782
 3984TP3     H111964   3.264   4.280   3.224 -0.5185  1.5708  0.6017
 3984TP3     H211965   3.361   4.199   3.307 -1.3049 -0.3634 -0.3056
 3985TP3      O11966   2.284   5.369   3.217 -0.3018  0.4660  0.0891
 3985TP3     H111967   2.227   5.421   3.274 -0.9146 -0.7726  0.6408
 3985TP3     H211968   2.258   5.278   3.233  0.6149 -0.0139 -0.9867
 3986TP3      O11969   2.126   5.491   2.845 -0.1644  0.0051 -0.0108
 3986TP3     H111970   2.187   5.564   2.831 -0.7058  0.2941 -0.9355
 3986TP3     H211971   2.060   5.527   2.904 -0.8984  0.5547 -1.1368
 3987TP3      O11972   3.514   4.090   2.464 -0.7992 -0.0836  0.1371
 3987TP3     H111973   3.493   4.183   2.469 -0.2380  0.0367  0.2944
 3987TP3     H211974   3.574   4.083   2.389  0.2912 -0.0948  0.9889
 3988TP3      O11975   3.440   4.669   2.587 -0.0964 -0.4521 -0.3537
 3988TP3     H111976   3.458   4.607   2.516 -1.5006  1.0826 -2.1615
 3988TP3     H211977   3.345   4.668   2.595 -0.0481  0.5515  0.4700
 3989TP3      O11978   2.950   3.786   3.380 -0.2076 -1.0027 -0.1862
 3989TP3     H111979   2.911   3.810   3.464 -0.0597 -0.4646 -0.2675
 3989TP3     H211980   3.036   3.751   3.403  0.3907  0.3857 -0.1860
 3990TP3      O11981   2.647   4.239   2.064 -0.1390 -0.7788  0.5842
 3990TP3     H111982   2.695   4.317   2.091 -0.5535 -0.2804 -0.1209
 3990TP3     H211983   2.654   4.237   1.969 -2.4330 -0.0817  0.3558
 3991TP3      O11984   2.672   5.461   2.156  0.3077  0.0220 -0.0820
 3991TP3     H111985   2.640   5.527   2.095  0.2973  0.3958  0.3232
 3991TP3     H211986   2.643   5.491   2.242 -2.2224 -1.9827 -0.1065
 3992TP3      O11987   2.356   4.836   4.240  0.2116  0.0868  0.0724
 3992TP3     H111988   2.370   4.799   4.153 -0.7842 -0.0284 -0.0539
 3992TP3     H211989   2.391   4.771   4.300  2.0406  0.7188 -0.2692
 3993TP3      O11990   1.468   4.342   5.418  0.0937  0.7157 -0.2686
 3993TP3     H111991   1.378   4.336   5.451  0.6876  0.8113  1.4679
 3993TP3     H211992   1.492   4.252   5.396 -0.1509  0.5615  0.0847
 3994TP3      O11993   1.681   4.250   4.728 -0.1621  0.1833  0.1358
 3994TP3     H111994   1.729   4.187   4.674 -0.2572 -1.4834  1.9040
 3994TP3     H211995   1.655   4.319   4.666  1.6454 -0.4971 -1.4903
 3995TP3      O11996   2.218   5.477   5.706  0.4802  0.9098  0.1724
 3995TP3     H111997   2.204   5.383   5.697  1.3714  0.8846 -1.1104
 3995TP3     H211998   2.139   5.516   5.668 -0.1487  0.6971  1.2187
 3996TP3      O11999   3.884   5.053   4.866  0.0922 -0.2283  0.0275
 3996TP3     H112000   3.939   5.005   4.927 -2.0897 -1.0491  1.4698
 3996TP3     H212001   3.827   5.107   4.922 -1.0570  0.0462 -1.3352
 3997TP3      O12002   3.628   4.358   4.327  0.1452  0.1729  0.0821
 3997TP3     H112003   3.657   4.309   4.250  2.0426  0.3944  0.6003
 3997TP3     H212004   3.709   4.386   4.368 -0.8732  2.5729  0.5710
 3998TP3      O12005   3.219   4.754   4.120  0.8287 -0.3582  0.0775
 3998TP3     H112006   3.150   4.695   4.151 -0.6954  1.0938 -0.3977
 3998TP3     H212007   3.292   4.696   4.098 -1.3819 -2.4156 -2.6210
 3999TP3      O12008   2.716   4.741   5.424 -0.5679  0.2252  0.7076
 3999TP3     H112009   2.716   4.816   5.483  1.0629  0.0021  1.0437
 3999TP3     H212010   2.658   4.767   5.353 -0.8076  1.4022  1.3004
 4000TP3      O12011   1.444   4.486   5.022 -0.0865  0.0005 -0.0215
 4000TP3     H112012   1.491   4.553   4.972 -0.8700  0.4989 -0.0984
 4000TP3     H212013   1.470   4.403   4.981  0.9878  0.2329  0.1546
 4001TP3      O12014   3.537   4.461   3.834  0.0562 -0.1813 -0.2146
 4001TP3     H112015   3.446   4.489   3.824  0.8887  3.0475  0.0663
 4001TP3     H212016   3.569   4.449   3.745  0.3638  2.7709 -0.6225
 4002TP3      O12017   3.211   4.875   4.550  0.6345 -0.0540 -0.2874
 4002TP3     H112018   3.122   4.858   4.520 -0.4979  2.2196  1.5109
 4002TP3     H212019   3.205   4.876   4.645  2.0423  2.4771 -0.1512
 4003TP3      O12020   2.899   4.961   4.941  0.4332  0.2964  0.4636
 4003TP3     H112021   2.871   5.034   4.886 -0.7017 -0.3210  0.1941
 4003TP3     H212022   2.851   4.973   5.023  1.4586  0.7267  1.0199
 4004TP3      O12023   3.480   4.483   4.855  0.3145  0.4111  0.4706
 4004TP3     H112024   3.523   4.419   4.798 -0.7901 -1.0394  1.1611
 4004TP3     H212025   3.461   4.558   4.798  1.2278 -0.0684 -0.4978
 4005TP3      O12026   2.465   4.148   5.281 -0.2799 -0.8207  0.0981
 4005TP3     H112027   2.431   4.234   5.307 -0.4707  0.0492 -2.7303
 4005TP3     H212028   2.559   4.153   5.301 -0.3631 -0.1253  0.3580
 4006TP3      O12029   4.164   4.528   4.412 -0.2482 -0.6169 -0.1844
 4006TP3     H112030   4.174   4.433   4.406  0.4644 -0.7499  2.1590
 4006TP3     H212031   4.100   4.541   4.482 -0.6847  0.6369 -0.7919
 4007TP3      O12032   2.748   0.280   4.560  0.1989 -0.3994 -0.3700
 4007TP3     H112033   2.735   0.228   4.481  2.2313  0.3570 -1.2620
 4007TP3     H212034   2.813   0.231   4.611  0.6459  0.2676 -0.2835
 4008TP3      O12035   3.411   4.278   5.719 -0.0284  0.1238 -0.0461
 4008TP3     H112036   3.337   4.218   5.727  0.1547 -0.1626 -0.5315
 4008TP3     H212037   3.389   4.334   5.645 -0.1572  0.6015  0.3487
 4009TP3      O12038   1.821   4.408   4.052  0.3774 -0.2790  0.5793
 4009TP3     H112039   1.770   4.488   4.060  1.6204  0.6890 -0.7541
 4009TP3     H212040   1.781   4.361   3.978  1.0570  0.2187 -0.1136
 4010TP3      O12041   1.689   5.421   4.583  0.3401  0.0559 -0.3321
 4010TP3     H112042   1.648   5.334   4.590 -0.3167  0.4844  2.0267
 4010TP3     H212043   1.626   5.481   4.622  1.9564  1.1795  0.6937
 4011TP3      O12044   2.143   5.441   5.064  0.0775 -0.0708  0.3055
 4011TP3     H112045   2.149   5.490   4.982  1.7730  0.0538  0.4745
 4011TP3     H212046   2.125   5.508   5.130 -1.0058 -0.1368  0.1017
 4012TP3      O12047   1.737   4.274   3.374 -0.0161 -0.1605  0.2611
 4012TP3     H112048   1.754   4.180   3.363  0.0644 -0.0364 -0.8049
 4012TP3     H212049   1.813   4.307   3.422 -0.7326 -0.8889  1.9376
 4013TP3      O12050   3.588   3.907   5.532 -0.0219 -0.3970  0.1250
 4013TP3     H112051   3.631   3.848   5.593 -0.1530 -0.6742 -0.0500
 4013TP3     H212052   3.656   3.970   5.507 -0.4523  0.9536  2.0764
 4014TP3      O12053   2.520   3.461   4.664  0.3692  0.0962 -0.1440
 4014TP3     H112054   2.507   3.437   4.755 -1.5690  0.2082 -0.3591
 4014TP3     H212055   2.528   3.556   4.665  1.7146  0.0057  0.0210
 4015TP3      O12056   3.725   5.246   3.579 -0.4721  0.0365 -0.0154
 4015TP3     H112057   3.664   5.281   3.515 -0.6132 -2.5833 -1.4921
 4015TP3     H212058   3.670   5.198   3.642 -0.1567  0.4064  0.5468
 4016TP3      O12059   2.075   5.188   4.425 -0.3981  0.7465  0.0883
 4016TP3     H112060   2.149   5.185   4.487 -1.4625  2.1430  1.5188
 4016TP3     H212061   2.113   5.160   4.342  0.9446 -1.9523  1.4741
 4017TP3      O12062   3.002   4.522   3.894 -0.0397  0.1929 -0.0747
 4017TP3     H112063   3.033   4.595   3.839  0.1804  1.0365  1.1291
 4017TP3     H212064   2.923   4.492   3.851  0.5393  0.3290 -1.2752
 4018TP3      O12065   4.057   5.448   3.977 -0.4251  0.4764 -0.0278
 4018TP3     H112066   4.115   5.457   4.052 -1.0211  1.1227  0.3782
 4018TP3     H212067   4.092   5.375   3.927  0.1213  0.1948  0.7549
 4019TP3      O12068   2.278   4.057   5.092  0.2298 -0.3736  0.1967
 4019TP3     H112069   2.334   4.099   5.157  1.6547 -1.9053  0.0216
 4019TP3     H212070   2.196   4.041   5.139 -0.1655  1.9728  0.4335
 4020TP3      O12071   2.175   4.696   3.835 -0.5115 -0.1522  0.3452
 4020TP3     H112072   2.107   4.727   3.775 -0.1505  0.4677  0.2447
 4020TP3     H212073   2.129   4.643   3.899 -1.0265 -0.0983  0.0222
 4021TP3      O12074   3.149   4.833   4.839 -0.6424 -0.2115 -0.7484
 4021TP3     H112075   3.074   4.861   4.893  0.2387  0.0316  0.3877
 4021TP3     H212076   3.204   4.783   4.900  0.4994  0.2742 -1.3667
 4022TP3      O12077   2.614   3.958   4.133  0.3289 -0.0582  0.4526
 4022TP3     H112078   2.587   3.913   4.053 -0.9426 -0.3418  1.0182
 4022TP3     H212079   2.695   3.914   4.159  0.7391  0.0129 -0.6479
 4023TP3      O12080   0.989   4.226   3.989 -0.5910 -0.6011 -0.0754
 4023TP3     H112081   0.971   4.223   4.083 -2.8187  1.6189 -0.3301
 4023TP3     H212082   1.069   4.277   3.982 -0.5837 -0.5111  0.5968
 4024TP3      O12083   3.544   5.533   3.987 -0.1518 -0.0681 -0.4492
 4024TP3     H112084   3.563   5.481   4.066 -2.1007  0.6634  0.5835
 4024TP3     H212085   3.586   5.485   3.916  0.8250 -1.3027  0.8878
 4025TP3      O12086   1.962   5.707   5.893 -0.3042  0.0360  0.1085
 4025TP3     H112087   1.902   5.775   5.924 -1.2094 -0.3559 -0.7313
 4025TP3     H212088   1.949   5.706   5.798  0.1001 -0.9331  0.0588
 4026TP3      O12089   2.105   4.033   5.483  0.0573  0.1120  0.3935
 4026TP3     H112090   2.091   4.085   5.404  0.5785 -0.4520 -0.0787
 4026TP3     H212091   2.107   3.943   5.453  0.4508 -0.0978  1.0213
 4027TP3      O12092   3.799   4.673   4.253 -0.0345  0.3927 -0.5343
 4027TP3     H112093   3.719   4.651   4.206 -0.4294 -0.1223  0.3411
 4027TP3     H212094   3.838   4.745   4.203 -1.6261  1.4327 -0.3700
 4028TP3      O12095   2.833   5.350   3.651  0.8617  0.7880  0.1475
 4028TP3     H112096   2.918   5.378   3.620  1.1293 -0.2753 -0.1154
 4028TP3     H212097   2.770   5.392   3.592  1.2833  0.2172 -0.7248
 4029TP3      O12098   2.692   3.890   3.871 -0.0597 -0.4614 -0.5478
 4029TP3     H112099   2.786   3.902   3.878 -0.0193 -1.4946  1.3686
 4029TP3     H212100   2.677   3.800   3.899 -1.5058 -0.8145 -2.2278
 4030TP3      O12101   2.803   3.930   4.762 -0.5367  0.3609  0.5546
 4030TP3     H112102   2.752   4.011   4.766 -1.3277 -0.1375  0.9675
 4030TP3     H212103   2.812   3.903   4.854  1.5464  1.0642  0.6141
 4031TP3      O12104   4.113   5.028   3.541 -0.5979 -0.3325 -0.5127
 4031TP3     H112105   4.169   5.069   3.475  0.6989  0.3548  0.9824
 4031TP3     H212106   4.081   5.100   3.594 -1.9836 -0.8409 -0.6028
 4032TP3      O12107   3.170   4.101   4.976 -0.1008  0.1207  0.2497
 4032TP3     H112108   3.203   4.135   5.059  0.2033  0.5162 -0.0304
 4032TP3     H212109   3.232   4.132   4.910  0.8295 -1.8891  0.0862
 4033TP3      O12110   3.388   4.944   5.037 -0.0146 -0.5189  0.0250
 4033TP3     H112111   3.310   4.981   5.079 -0.7749 -0.4439 -1.3813
 4033TP3     H212112   3.398   4.995   4.957  3.7855  2.0927  1.8679
 4034TP3      O12113   2.801   3.865   5.046  0.9598  0.4424  0.4809
 4034TP3     H112114   2.780   3.816   5.125  0.5717 -0.4614 -0.1759
 4034TP3     H212115   2.824   3.953   5.079 -1.3286  0.7692  1.4523
 4035TP3      O12116   2.741   5.221   4.444 -0.2394 -0.2260 -0.5193
 4035TP3     H112117   2.683   5.147   4.463 -0.3980 -0.2092 -0.9279
 4035TP3     H212118   2.686   5.298   4.455  0.2231 -0.0935  1.0426
 4036TP3      O12119   2.371   4.266   3.526 -0.0966 -0.4518  0.1538
 4036TP3     H112120   2.353   4.327   3.597 -1.2985  0.1942 -0.6666
 4036TP3     H212121   2.337   4.182   3.558  0.5184 -0.4437  0.8348
 4037TP3      O12122   1.945   4.446   4.932 -0.0631  0.1254  0.7833
 4037TP3     H112123   1.948   4.442   4.836  1.0756  2.4558  0.6408
 4037TP3     H212124   1.912   4.534   4.951 -0.8598 -0.5263  2.5538
 4038TP3      O12125   2.006   5.294   5.621  0.6609  0.3398  0.0085
 4038TP3     H112126   1.970   5.265   5.705 -1.6783 -0.4869 -1.1925
 4038TP3     H212127   1.955   5.372   5.599 -0.1463 -0.5608 -1.5055
 4039TP3      O12128   2.857   4.345   3.254 -0.5723 -0.4436 -0.4162
 4039TP3     H112129   2.860   4.269   3.196  0.6897 -0.2202 -0.6563
 4039TP3     H212130   2.763   4.364   3.262 -0.8708 -1.6130 -0.8726
 4040TP3      O12131   4.047   3.971   4.921  0.3879 -0.6478 -0.1894
 4040TP3     H112132   4.130   4.006   4.952  0.8133 -0.1329 -1.7997
 4040TP3     H212133   4.068   3.926   4.839 -0.9681 -0.0443 -0.9137
 4041TP3      O12134   2.683   4.455   4.056 -0.0283 -0.5024 -0.0149
 4041TP3     H112135   2.756   4.407   4.097 -1.0361 -1.1057  1.1329
 4041TP3     H212136   2.651   4.395   3.988 -0.3941 -0.8676  0.4766
 4042TP3      O12137   2.539   4.354   4.615  0.0771 -0.1959  0.7218
 4042TP3     H112138   2.629   4.379   4.594 -0.1813 -0.0829 -0.2781
 4042TP3     H212139   2.501   4.328   4.531 -0.4854 -1.3464  1.3098
 4043TP3      O12140   2.002   5.096   3.703 -0.1054 -0.3793 -0.2842
 4043TP3     H112141   2.051   5.014   3.702 -0.3178 -0.5285  0.4404
 4043TP3     H212142   2.068   5.164   3.717 -0.2375 -0.7592  3.0893
 4044TP3      O12143   1.821   0.152   5.310  0.3422  0.4841  0.1604
 4044TP3     H112144   1.884   0.211   5.351 -1.6089  1.4335  1.9650
 4044TP3     H212145   1.766   0.209   5.257 -2.5790  0.7639  3.1584
 4045TP3      O12146   4.188   4.960   4.207 -0.0188 -0.3556  0.5603
 4045TP3     H112147   4.250   4.889   4.191  0.2863 -0.3954  1.8157
 4045TP3     H212148   4.144   4.973   4.123  0.1179 -1.8431  0.2328
 4046TP3      O12149   2.135   5.545   4.218  0.1524 -0.5378  0.1193
 4046TP3     H112150   2.104   5.581   4.301 -0.9762 -0.6277 -0.2529
 4046TP3     H212151   2.180   5.464   4.242 -0.5654 -0.7959  0.6071
 4047TP3      O12152   2.663   5.253   3.044 -0.3781  0.3906 -0.5796
 4047TP3     H112153   2.583   5.301   3.019 -0.7092  0.3253  0.3027
 4047TP3     H212154   2.728   5.322   3.059 -1.2227  0.7515  2.0243
 4048TP3      O12155   3.397   4.066   5.272  0.0816 -0.0904 -0.0786
 4048TP3     H112156   3.436   4.136   5.325  0.9976  0.1034 -0.9895
 4048TP3     H212157   3.459   4.051   5.201 -0.0112 -1.9453  0.1727
 4049TP3      O12158   2.601   4.991   5.541  0.2947  0.1111  0.6597
 4049TP3     H112159   2.513   4.984   5.579  0.4427 -1.9082  0.7441
 4049TP3     H212160   2.645   5.056   5.596 -0.6327 -0.0567  1.6526
 4050TP3      O12161   2.236   5.516   3.945 -0.1843  0.2638  0.3495
 4050TP3     H112162   2.207   5.581   4.009 -0.5929  1.2154 -0.7620
 4050TP3     H212163   2.308   5.470   3.989 -0.1200  1.2202  1.2984
 4051TP3      O12164   2.207   3.623   4.613 -0.2607 -0.5774 -0.3459
 4051TP3     H112165   2.237   3.642   4.702  2.1265 -1.7486 -0.8315
 4051TP3     H212166   2.224   3.704   4.564 -0.2822 -0.3936 -0.0518
 4052TP3      O12167   3.573   5.283   4.171  0.0268 -0.2719  0.1034
 4052TP3     H112168   3.566   5.208   4.230  0.2898  0.2967  0.8698
 4052TP3     H212169   3.664   5.281   4.140  0.9087  1.3386  2.3506
 4053TP3      O12170   2.124   5.729   3.078 -0.2969  0.3271 -0.8953
 4053TP3     H112171   2.045   5.782   3.089 -0.2180  0.4439 -0.8954
 4053TP3     H212172   2.156   5.714   3.168 -0.2582  0.3697 -0.9025
 4054TP3      O12173   3.011   3.626   5.425  0.6967 -0.1034  0.3552
 4054TP3     H112174   3.105   3.641   5.417  1.0776 -1.4722  1.6586
 4054TP3     H212175   2.992   3.558   5.361  0.6142  0.0974  0.1659
 4055TP3      O12176   2.052   0.265   4.447  0.2262 -0.2736 -0.1048
 4055TP3     H112177   2.043   0.298   4.536  0.5370 -0.8936  0.1589
 4055TP3     H212178   1.965   0.277   4.409 -0.1587 -0.8319  0.5712
 4056TP3      O12179   4.206   5.738   4.549  0.3585 -0.0111  0.5650
 4056TP3     H112180   4.200   5.778   4.462 -1.8345  1.1099  1.1490
 4056TP3     H212181   4.234   5.809   4.606  1.9070 -0.7706  0.8021
 4057TP3      O12182   1.870   4.555   4.467 -0.2229  0.2889 -0.6691
 4057TP3     H112183   1.963   4.551   4.446  0.3933 -2.2138  1.8443
 4057TP3     H212184   1.856   4.645   4.497  1.7929  0.3486  0.2925
 4058TP3      O12185   3.327   3.808   5.217  0.3443  0.2531  0.1325
 4058TP3     H112186   3.346   3.897   5.246  0.5675  0.8247 -1.6402
 4058TP3     H212187   3.322   3.757   5.298 -4.0262  2.5885  1.6624
 4059TP3      O12188   1.520   4.545   3.948 -0.1866 -0.0861  0.7675
 4059TP3     H112189   1.529   4.459   3.908  0.8846  0.0785  0.6090
 4059TP3     H212190   1.490   4.527   4.038 -0.6255 -0.5758  0.5268
 4060TP3      O12191   2.322   3.834   4.925  0.5511 -0.1256  0.1590
 4060TP3     H112192   2.311   3.905   4.989 -1.0121 -0.1121 -0.0910
 4060TP3     H212193   2.331   3.879   4.841 -1.9090 -0.1637 -0.2131
 4061TP3      O12194   2.438   5.368   4.802  0.9389  0.6545  0.2402
 4061TP3     H112195   2.356   5.384   4.756  1.1512 -1.4355 -0.9923
 4061TP3     H212196   2.447   5.442   4.861  0.0941  2.9548 -2.2924
 4062TP3      O12197   3.322   4.418   5.224 -0.2625  0.0709 -0.1223
 4062TP3     H112198   3.336   4.501   5.271 -0.0876  0.6824 -1.2288
 4062TP3     H212199   3.405   4.401   5.180 -0.3565 -0.6128 -0.0457
 4063TP3      O12200   2.524   5.858   4.700 -0.1815  0.4226  0.0537
 4063TP3     H112201   2.487   5.943   4.724 -0.3377  0.5504 -0.6239
 4063TP3     H212202   2.586   5.877   4.630 -0.5938 -0.0731 -0.4647
 4064TP3      O12203   2.669   4.221   3.914  0.5210  0.1383  0.2127
 4064TP3     H112204   2.631   4.205   3.827 -2.4933  3.0424  0.8189
 4064TP3     H212205   2.642   4.145   3.966 -0.7515  0.0651 -0.5162
 4065TP3      O12206   2.842   3.384   4.263 -0.4646 -0.1201 -0.3196
 4065TP3     H112207   2.850   3.430   4.179 -0.4563 -0.1176 -0.3174
 4065TP3     H212208   2.928   3.393   4.303  0.1456 -1.8145 -1.1709
 4066TP3      O12209   2.890   5.057   3.549  0.0916  0.4544 -0.5062
 4066TP3     H112210   2.916   5.134   3.499 -0.3703  1.5576  0.8899
 4066TP3     H212211   2.798   5.073   3.572  0.1732 -0.2055  0.3450
 4067TP3      O12212   2.192   3.976   4.363 -0.0856  0.0288  0.5798
 4067TP3     H112213   2.257   4.045   4.345 -1.1710  0.8641 -0.2792
 4067TP3     H212214   2.245   3.899   4.382  1.1708  1.0413  1.3739
 4068TP3      O12215   2.925   3.521   2.712  0.2081  0.2211  0.0534
 4068TP3     H112216   2.865   3.479   2.774  0.7076 -2.0387 -0.8862
 4068TP3     H212217   2.870   3.541   2.636 -0.2054  2.1329  0.8087
 4069TP3      O12218   3.008   4.802   4.309  0.6003 -0.0643  0.3396
 4069TP3     H112219   3.002   4.893   4.279 -1.2603 -0.2641 -0.0259
 4069TP3     H212220   2.956   4.753   4.245 -0.7063 -0.9898  2.0213
 4070TP3      O12221   3.070   5.420   4.944  0.0142 -0.0669 -0.0790
 4070TP3     H112222   2.991   5.376   4.975  0.8772 -0.9784  0.9099
 4070TP3     H212223   3.097   5.369   4.868 -0.8593  0.8307 -1.0260
 4071TP3      O12224   3.042   4.219   4.766  0.5924  0.5385 -0.0972
 4071TP3     H112225   3.068   4.159   4.836  0.4861  0.8407  0.2035
 4071TP3     H212226   2.972   4.271   4.805 -0.6666 -0.4345 -0.9722
 4072TP3      O12227   3.052   5.986   4.092  0.4535  0.2220  0.3443
 4072TP3     H112228   3.125   6.007   4.034 -1.3886  0.2553 -2.1118
 4072TP3     H212229   3.002   5.920   4.045 -0.2027 -1.1197  2.7606
 4073TP3      O12230   2.548   4.320   4.316  0.4882  0.2416 -0.5853
 4073TP3     H112231   2.556   4.387   4.249  0.5434  0.3899 -0.4321
 4073TP3     H212232   2.629   4.268   4.307  0.5207  0.2939 -0.5990
 4074TP3      O12233   1.193   4.312   5.445 -0.6255 -0.4882  0.0661
 4074TP3     H112234   1.147   4.234   5.413  0.9523 -2.5834  2.5023
 4074TP3     H212235   1.134   4.349   5.510 -1.4145  0.5048 -1.1541
 4075TP3      O12236   1.787   4.216   5.461  0.2697  0.5526  0.1452
 4075TP3     H112237   1.737   4.280   5.411  1.3923  0.6824 -0.8745
 4075TP3     H212238   1.796   4.255   5.548 -1.7651  0.2966  0.5096
 4076TP3      O12239   2.381   3.891   4.638  0.2924  0.1929  0.3945
 4076TP3     H112240   2.412   3.931   4.557 -1.8856 -0.6253 -0.9220
 4076TP3     H212241   2.449   3.827   4.659  0.3390 -0.4512 -1.4901
 4077TP3      O12242   3.054   3.731   4.381  0.4460  0.4779 -0.2115
 4077TP3     H112243   3.028   3.755   4.293 -0.8748  0.1635  0.0788
 4077TP3     H212244   2.998   3.784   4.438 -0.2146 -0.8617  0.4264
 4078TP3      O12245   3.485   5.055   4.797 -0.1323 -0.1147 -0.2380
 4078TP3     H112246   3.542   5.103   4.737  0.2977  1.1747  1.1325
 4078TP3     H212247   3.396   5.079   4.768  0.0610  0.2740 -0.5291
 4079TP3      O12248   3.025   4.145   4.153 -0.1603  0.7126 -0.1400
 4079TP3     H112249   3.078   4.206   4.103  0.7598 -1.3675 -1.8587
 4079TP3     H212250   3.082   4.116   4.224  0.3295 -0.0303 -0.8224
 4080TP3      O12251   3.981   3.903   2.997 -0.8120 -0.0624  0.0797
 4080TP3     H112252   3.925   3.890   2.920  1.3229 -2.4869 -1.2210
 4080TP3     H212253   4.068   3.919   2.960 -0.4895  3.8509  2.0164
 4081TP3      O12254   2.297   5.204   3.664 -0.5014  0.0094 -0.5856
 4081TP3     H112255   2.364   5.224   3.730  0.8268  0.1551 -1.9283
 4081TP3     H212256   2.269   5.289   3.631 -0.8871 -0.0779 -0.4930
 4082TP3      O12257   3.868   4.541   4.950  0.1357 -0.3864  0.1313
 4082TP3     H112258   3.937   4.606   4.966 -0.0707 -0.1608  0.1042
 4082TP3     H212259   3.842   4.512   5.037  1.0056 -1.2561  0.1163
 4083TP3      O12260   3.158   3.795   3.819  0.0978 -0.6099 -0.1748
 4083TP3     H112261   3.242   3.751   3.829 -0.1603 -0.9246  0.7491
 4083TP3     H212262   3.172   3.883   3.853 -0.3507 -1.1732  1.6001
 4084TP3      O12263   2.769   4.577   3.736  0.6357 -0.2754 -1.1023
 4084TP3     H112264   2.732   4.489   3.727  1.5027 -0.5861 -1.6862
 4084TP3     H212265   2.706   4.634   3.693 -0.4407 -0.4619  0.1457
 4085TP3      O12266   3.425   4.321   4.523  0.8864  0.3017  0.5498
 4085TP3     H112267   3.490   4.274   4.471  1.1232  0.7199  0.4558
 4085TP3     H212268   3.445   4.414   4.507 -0.9347  0.4873 -0.9820
 4086TP3      O12269   3.353   5.370   5.788  0.1234 -0.6536 -0.0875
 4086TP3     H112270   3.307   5.407   5.863 -1.1127 -0.3143 -0.9825
 4086TP3     H212271   3.351   5.440   5.722  2.2149 -0.5107 -0.0626
 4087TP3      O12272   3.680   5.928   4.778  0.4335  0.3906 -0.2186
 4087TP3     H112273   3.666   5.923   4.683 -1.3041 -0.9673  0.0458
 4087TP3     H212274   3.773   5.908   4.790  0.5326 -0.0779 -1.6057
 4088TP3      O12275   3.868   5.055   4.234  0.2061 -0.4759  0.1425
 4088TP3     H112276   3.928   5.050   4.309 -0.5583 -2.3348  0.6902
 4088TP3     H212277   3.782   5.037   4.272 -0.5661  1.0319 -0.8175
 4089TP3      O12278   3.347   4.932   4.328 -0.3631 -0.6780  0.3426
 4089TP3     H112279   3.319   4.875   4.257 -0.4553  0.2276 -0.3684
 4089TP3     H212280   3.300   4.900   4.404  0.7601 -2.5283  0.3285
 4090TP3      O12281   2.975   4.009   4.533  0.2841  0.1002 -0.0591
 4090TP3     H112282   3.052   4.026   4.587  0.0002 -3.7739  1.9037
 4090TP3     H212283   2.905   3.992   4.596 -1.9834  2.2936 -1.7997
 4091TP3      O12284   3.215   5.163   4.262 -0.2485 -0.4837 -0.8731
 4091TP3     H112285   3.278   5.092   4.274  0.7442  0.5200 -0.0434
 4091TP3     H212286   3.206   5.203   4.348  1.9914  2.6634 -1.9046
 4092TP3      O12287   2.548   4.679   3.501 -0.5822  0.5050 -0.8431
 4092TP3     H112288   2.521   4.756   3.452 -0.9362  0.8269 -0.1606
 4092TP3     H212289   2.497   4.683   3.582  0.2295  0.1743 -0.2940
 4093TP3      O12290   2.950   5.055   4.198  0.2109  0.3926 -0.3139
 4093TP3     H112291   3.026   5.088   4.246 -1.4860  0.5300  2.4952
 4093TP3     H212292   2.898   5.133   4.178  0.2883  0.2043 -1.3164
 4094TP3      O12293   3.737   3.471   5.255 -0.0078  0.7338 -0.9819
 4094TP3     H112294   3.695   3.554   5.232  0.1789  0.6618 -1.5948
 4094TP3     H212295   3.780   3.488   5.339 -2.4459  0.4077  0.4382
 4095TP3      O12296   2.177   5.310   4.700 -0.3504 -0.1614 -0.1532
 4095TP3     H112297   2.119   5.385   4.719 -2.4081 -1.3465 -1.3517
 4095TP3     H212298   2.134   5.236   4.742  1.2466 -0.8251  0.3546
 4096TP3      O12299   2.008   4.991   3.993  0.6243  0.3100 -0.1551
 4096TP3     H112300   1.939   5.047   4.027 -2.1687 -3.1353  0.5224
 4096TP3     H212301   2.035   4.938   4.068  0.6276 -1.5331 -1.3860
 4097TP3      O12302   2.541   3.703   4.797  0.1492  0.2685  0.1455
 4097TP3     H112303   2.602   3.774   4.817 -0.9778  0.9291  1.4336
 4097TP3     H212304   2.475   3.708   4.867 -1.6568 -0.1046 -1.4477
 4098TP3      O12305   2.948   5.461   3.334 -0.7128 -0.2263  0.1647
 4098TP3     H112306   2.913   5.374   3.316 -0.0558 -0.6012  0.6542
 4098TP3     H212307   3.032   5.463   3.290 -0.3611 -0.1413  0.8252
 4099TP3      O12308   2.512   0.152   4.712 -0.5902  0.3377  0.3758
 4099TP3     H112309   2.516   0.192   4.799 -0.3962 -0.9561  0.9772
 4099TP3     H212310   2.596   0.173   4.672 -0.7397  1.0659  0.4372
 4100TP3      O12311   4.369   4.061   4.831 -0.2338  0.0310  0.1335
 4100TP3     H112312   4.405   3.980   4.866 -0.5562 -0.8883 -1.5580
 4100TP3     H212313   4.327   4.035   4.749  0.6228  2.0880 -1.0255
 4101TP3      O12314   3.135   5.229   4.515 -0.0375  0.1819  0.1009
 4101TP3     H112315   3.084   5.295   4.467 -0.5327 -0.2385  0.0431
 4101TP3     H212316   3.085   5.148   4.505  0.5397 -0.1944  0.2197
 4102TP3      O12317   1.839   4.699   4.941 -0.2905 -0.3965  0.0461
 4102TP3     H112318   1.864   4.735   4.857  0.1422 -1.6381 -0.3902
 4102TP3     H212319   1.744   4.687   4.936 -0.2530 -0.5469 -0.2938
 4103TP3      O12320   2.969   4.626   5.070  0.2088 -0.2859 -0.1185
 4103TP3     H112321   3.025   4.603   4.996 -0.4345  1.0273 -1.0464
 4103TP3     H212322   3.028   4.672   5.130  0.9388 -2.1136  0.6452
 4104TP3      O12323   1.980   4.422   5.874  0.0135 -0.8139  0.0416
 4104TP3     H112324   1.964   4.516   5.879 -0.4483 -0.9673  3.0689
 4104TP3     H212325   1.899   4.386   5.839  0.6276 -0.0867 -2.3740
 4105TP3      O12326   2.509   4.332   5.703  0.5228  0.0527 -0.4458
 4105TP3     H112327   2.476   4.397   5.765  1.6829  0.0490  0.1845
 4105TP3     H212328   2.590   4.370   5.668 -0.8524  0.7860 -3.1811
 4106TP3      O12329   2.439   5.325   4.077 -0.6789  0.0713  0.2123
 4106TP3     H112330   2.497   5.383   4.126  1.5306 -1.6833 -0.1346
 4106TP3     H212331   2.406   5.263   4.142  1.1770 -1.4220 -0.1700
 4107TP3      O12332   3.582   4.029   3.972 -0.9408  0.5594 -0.0557
 4107TP3     H112333   3.516   4.034   3.903 -1.6176  0.9159  0.6014
 4107TP3     H212334   3.609   4.120   3.985 -0.2740  0.4083 -0.3594
 4108TP3      O12335   3.397   4.544   3.232  0.1663 -0.3992 -0.5319
 4108TP3     H112336   3.343   4.478   3.275  0.4234  0.1243  0.6115
 4108TP3     H212337   3.342   4.577   3.161 -1.5959  1.1144  1.4383
 4109TP3      O12338   2.620   4.125   4.776 -0.0219  0.0777 -0.1116
 4109TP3     H112339   2.604   4.145   4.869  0.8699 -1.6098  0.4436
 4109TP3     H212340   2.591   4.204   4.730  1.0745  1.6527  1.7134
 4110TP3      O12341   3.057   4.593   4.578  0.2614  0.2662 -0.0423
 4110TP3     H112342   3.110   4.516   4.558 -0.6240 -0.3865  0.0244
 4110TP3     H212343   3.050   4.640   4.495  0.6062  0.1495 -0.1384
 4111TP3      O12344   2.109   4.338   3.746 -0.0112  0.3488 -0.0958
 4111TP3     H112345   2.089   4.362   3.655  0.6632  1.3103 -0.0095
 4111TP3     H212346   2.110   4.242   3.746 -0.4167  0.3352 -1.0127
 4112TP3      O12347   2.673   4.519   5.538 -0.8996 -0.2126 -0.1686
 4112TP3     H112348   2.711   4.598   5.499 -2.8398  0.8993  0.0807
 4112TP3     H212349   2.714   4.513   5.624 -0.3288  0.1975 -0.4044
 4113TP3      O12350   2.314   4.212   4.254  0.1576 -0.6605  0.4060
 4113TP3     H112351   2.292   4.284   4.195  0.7923 -0.5026  0.3602
 4113TP3     H212352   2.397   4.237   4.293  0.4960 -1.4793  0.2233
 4114TP3      O12353   3.940   4.780   4.007  0.6551 -0.0231  0.3559
 4114TP3     H112354   3.984   4.864   3.991 -1.2072  0.8957 -0.2932
 4114TP3     H212355   3.860   4.785   3.955  1.7412 -3.3777 -2.0005
 4115TP3      O12356   3.148   4.342   4.553  0.1738 -0.0564  0.1571
 4115TP3     H112357   3.240   4.315   4.557 -0.1686 -1.8215 -2.0543
 4115TP3     H212358   3.108   4.301   4.629  0.9234 -0.6123  0.2689
 4116TP3      O12359   3.501   3.957   0.113 -0.5163 -0.0104  0.0330
 4116TP3     H112360   3.475   3.965   0.022 -2.2061 -0.3839  0.4510
 4116TP3     H212361   3.470   4.037   0.155 -2.3970 -1.1054  0.8338
 4117TP3      O12362   3.470   4.932   5.357  0.3077 -0.1806 -0.1843
 4117TP3     H112363   3.557   4.895   5.342  0.6200  0.7169 -0.6272
 4117TP3     H212364   3.442   4.963   5.271 -0.1983  0.0768  0.0708
 4118TP3      O12365   2.991   4.763   5.560 -0.1193 -0.5594  0.4091
 4118TP3     H112366   3.061   4.698   5.570  1.6594  1.4035  1.5660
 4118TP3     H212367   2.944   4.736   5.481  1.2887 -2.5331  0.1693
 4119TP3      O12368   3.103   4.422   4.303 -0.5069 -0.4897 -0.4281
 4119TP3     H112369   3.192   4.408   4.270  0.1367  1.7169  0.2137
 4119TP3     H212370   3.107   4.396   4.395 -0.1311  0.8590 -0.0438
 4120TP3      O12371   3.718   4.784   3.838  0.6322 -0.7944  0.1316
 4120TP3     H112372   3.760   4.856   3.790  2.4621 -0.5094  2.0016
 4120TP3     H212373   3.625   4.807   3.840  0.8265  0.2625 -1.3664
 4121TP3      O12374   2.741   4.578   4.344  0.3108  0.0928 -0.8045
 4121TP3     H112375   2.812   4.590   4.282  2.0975 -0.4415  1.0539
 4121TP3     H212376   2.771   4.509   4.403 -1.0621  0.9204  0.9722
 4122TP3      O12377   1.851   4.224   4.265  0.2598  0.0833 -0.0097
 4122TP3     H112378   1.850   4.302   4.209  2.0698  0.5529  0.5601
 4122TP3     H212379   1.930   4.233   4.317 -0.3203 -1.3851  1.1799
 4123TP3      O12380   2.092   4.365   5.135 -0.5115  0.3445  0.2872
 4123TP3     H112381   2.022   4.420   5.100 -0.7850 -2.1442 -3.6195
 4123TP3     H212382   2.159   4.427   5.165 -1.5392  2.8434 -2.1384
 4124TP3      O12383   3.377   4.037   4.589  0.1913  0.8472  0.2387
 4124TP3     H112384   3.466   4.045   4.553 -0.3350  2.4859 -0.8284
 4124TP3     H212385   3.328   4.108   4.547 -2.0987 -1.1030 -0.5708
 4125TP3      O12386   2.837   3.424   4.938  0.8580  0.1065  0.2960
 4125TP3     H112387   2.822   3.482   4.863  1.0798 -0.0887  0.0958
 4125TP3     H212388   2.801   3.471   5.013 -3.3644 -1.5144 -0.4922
 4126TP3      O12389   1.100   5.147   4.662 -0.1998  0.3762  0.0742
 4126TP3     H112390   1.076   5.083   4.730 -2.1578  1.9143  0.9229
 4126TP3     H212391   1.016   5.170   4.621  0.7799  0.5624 -1.9326
 4127TP3      O12392   2.041   0.103   5.068 -0.7771 -0.1591  0.2647
 4127TP3     H112393   2.023   0.170   5.002  1.7777 -0.3090 -0.6986
 4127TP3     H212394   2.023   0.020   5.023 -0.3504 -0.2137  0.1856
 4128TP3      O12395   2.838   5.557   5.213 -0.1521 -0.2540  0.3585
 4128TP3     H112396   2.892   5.492   5.169  1.4766  1.6606 -0.6381
 4128TP3     H212397   2.856   5.639   5.166 -2.0994  0.9302  1.5511
 4129TP3      O12398   3.572   4.375   5.083  0.1459 -0.1124  0.2052
 4129TP3     H112399   3.640   4.419   5.134  0.5420  0.0293 -0.4376
 4129TP3     H212400   3.566   4.426   5.002  0.3827 -1.0554 -0.4159
 4130TP3      O12401   1.661   3.623   4.657  0.3738 -0.2924  0.2313
 4130TP3     H112402   1.601   3.643   4.585  0.6784 -1.3074 -0.3229
 4130TP3     H212403   1.729   3.690   4.649  0.0411  0.0260  0.0088
 4131TP3      O12404   1.579   3.325   4.477 -0.9917 -0.0416 -1.1496
 4131TP3     H112405   1.664   3.320   4.521 -2.4594  2.0782  2.3390
 4131TP3     H212406   1.579   3.411   4.436 -2.1152  0.8222  0.5809
 4132TP3      O12407   2.193   4.306   0.005  0.0589  0.8324  0.1713
 4132TP3     H112408   2.120   4.339  -0.048 -0.4693 -1.1421 -0.4097
 4132TP3     H212409   2.151   4.263   0.080  0.4743 -1.6221 -0.9144
 4133TP3      O12410   2.426   4.713   3.748 -0.1410 -0.2834 -0.3977
 4133TP3     H112411   2.335   4.706   3.776 -0.1821 -3.4627 -0.9770
 4133TP3     H212412   2.475   4.725   3.829 -0.9467 -0.1918  0.0878
 4134TP3      O12413   4.085   4.492   4.686 -0.0610  0.2291  0.0251
 4134TP3     H112414   4.119   4.527   4.768  0.6632 -2.8688  1.1899
 4134TP3     H212415   3.990   4.502   4.693  0.1109  1.8465  0.2929
 4135TP3      O12416   1.895   4.675   5.947  0.0774  0.3365 -0.0166
 4135TP3     H112417   1.978   4.722   5.953  0.7949 -1.0201  1.1098
 4135TP3     H212418   1.833   4.741   5.916  1.1394  1.8972  1.0483
 4136TP3      O12419   2.353   4.469   4.879  0.0540  0.3125 -0.0114
 4136TP3     H112420   2.389   4.381   4.891 -0.2690  0.1461 -0.2452
 4136TP3     H212421   2.340   4.502   4.968  1.2485  0.5749  0.0867
 4137TP3      O12422   2.751   0.493   5.785  0.3052 -0.2758 -0.3115
 4137TP3     H112423   2.718   0.409   5.754 -1.9275  0.1130  0.7981
 4137TP3     H212424   2.826   0.470   5.840  0.6608 -1.3843 -1.2012
 4138TP3      O12425   2.089   4.757   3.483  0.0449 -0.2518 -0.0254
 4138TP3     H112426   2.130   4.673   3.462  0.3458 -0.4290  1.1931
 4138TP3     H212427   2.159   4.808   3.523 -0.5142  0.0259  0.6206
 4139TP3      O12428   1.649   4.974   4.924 -0.0507  0.3490 -0.8610
 4139TP3     H112429   1.707   5.036   4.881  0.0465  0.0784 -1.1181
 4139TP3     H212430   1.568   4.977   4.873  1.0214 -2.1409 -2.9140
 4140TP3      O12431   2.657   4.320   5.006 -0.1174 -0.2206  0.0407
 4140TP3     H112432   2.655   4.395   4.947  0.6660 -1.1825 -1.2550
 4140TP3     H212433   2.658   4.358   5.093 -0.9791  1.2466 -0.5592
 4141TP3      O12434   2.762   4.152   3.546 -0.1977  0.2767 -0.5584
 4141TP3     H112435   2.690   4.109   3.592 -0.9586 -0.0051 -1.9527
 4141TP3     H212436   2.731   4.241   3.530 -0.2480  0.1540 -1.1630
 4142TP3      O12437   3.209   5.196   5.411 -0.0098  0.2532 -0.2899
 4142TP3     H112438   3.223   5.232   5.498 -0.7928 -1.0299  0.3932
 4142TP3     H212439   3.294   5.204   5.367  0.5231  0.4568  0.7632
 4143TP3      O12440   2.849   5.660   4.521 -0.0861 -0.4264 -0.1425
 4143TP3     H112441   2.914   5.676   4.589 -0.0700 -0.1231 -0.2313
 4143TP3     H212442   2.815   5.746   4.498  0.6739 -0.4149 -1.2771
 4144TP3      O12443   1.516   4.963   5.190 -0.0004  0.4021  0.2252
 4144TP3     H112444   1.577   4.974   5.117  3.3989  1.7598  3.0060
 4144TP3     H212445   1.517   4.869   5.209  1.1294  0.3860  0.1127
 4145TP3      O12446   2.942   4.506   5.349  0.2495  0.1908 -0.1840
 4145TP3     H112447   2.994   4.559   5.289  0.1735  0.1890 -0.2511
 4145TP3     H212448   2.852   4.530   5.331  0.1338 -0.8219 -1.0440
 4146TP3      O12449   4.113   3.951   4.375  0.0094 -0.5117  0.5150
 4146TP3     H112450   4.168   3.875   4.392  0.7953 -0.5783 -1.9132
 4146TP3     H212451   4.038   3.941   4.434  0.8605 -2.2970  1.3536
 4147TP3      O12452   3.012   5.445   4.409 -0.3093  0.0166  0.0054
 4147TP3     H112453   3.077   5.513   4.390  0.1991 -0.5207 -0.1988
 4147TP3     H212454   2.939   5.492   4.450 -0.8785  1.0460 -2.0434
 4148TP3      O12455   2.288   0.378   5.030  0.4596 -0.1742 -0.1711
 4148TP3     H112456   2.324   0.431   5.101  1.2805 -0.4519 -0.3691
 4148TP3     H212457   2.302   0.431   4.951 -0.9143  0.3603 -0.0857
 4149TP3      O12458   3.577   4.772   4.479 -0.4058 -0.2669  0.1848
 4149TP3     H112459   3.614   4.731   4.400  0.3698  0.1439  0.3225
 4149TP3     H212460   3.641   4.839   4.503 -2.1194  1.7065 -0.5841
 4150TP3      O12461   3.298   4.736   5.456  0.5686  0.1585  0.2925
 4150TP3     H112462   3.366   4.794   5.421  0.4189 -0.1828 -0.5893
 4150TP3     H212463   3.280   4.771   5.543 -0.0955  1.9648 -0.5086
 4151TP3      O12464   2.438   5.775   4.205  0.2492  0.4416  0.2016
 4151TP3     H112465   2.356   5.822   4.189 -0.5599 -1.2376 -0.8786
 4151TP3     H212466   2.446   5.716   4.131  0.8285 -1.6173  1.8052
 4152TP3      O12467   3.602   5.053   4.321 -0.9599  0.4140 -0.3015
 4152TP3     H112468   3.516   5.012   4.334 -0.8668  0.3749  0.2304
 4152TP3     H212469   3.633   5.071   4.410 -0.4703  0.5394 -0.4961
 4153TP3      O12470   3.890   3.917   5.196  1.0406 -0.2173  0.4869
 4153TP3     H112471   3.884   4.008   5.225 -0.9981  0.0827 -0.6344
 4153TP3     H212472   3.948   3.920   5.120 -0.0833  0.4188 -0.3750
 4154TP3      O12473   2.819   3.912   4.293  0.3113  0.2896 -0.1583
 4154TP3     H112474   2.834   3.872   4.379  2.2683 -1.6591 -1.3003
 4154TP3     H212475   2.832   4.005   4.308  1.9717 -0.1417  1.4297
 4155TP3      O12476   3.074   5.234   3.892  0.2668 -0.1367  0.3193
 4155TP3     H112477   3.016   5.282   3.951 -1.8443 -0.9028 -1.0339
 4155TP3     H212478   3.053   5.142   3.908 -1.0085 -0.3470 -2.1632
 4156TP3      O12479   2.984   4.344   5.566  0.4944 -0.1186  0.0134
 4156TP3     H112480   2.954   4.381   5.482 -1.6764  0.4197  0.9530
 4156TP3     H212481   2.951   4.254   5.565  0.4907 -0.1196  0.2763
 4157TP3      O12482   2.797   4.235   4.292  0.0543  0.3475 -0.4672
 4157TP3     H112483   2.860   4.256   4.362 -0.3914  1.2053 -0.3048
 4157TP3     H212484   2.851   4.206   4.219  0.5184 -0.8038  0.3072
 4158TP3      O12485   3.845   5.084   2.196 -0.2001  0.2402 -0.5100
 4158TP3     H112486   3.817   5.006   2.242  0.1985 -1.2730 -2.6480
 4158TP3     H212487   3.781   5.151   2.219 -2.6978 -1.7003 -1.3342
 4159TP3      O12488   2.323   4.432   4.085  0.8922 -0.9958 -0.6220
 4159TP3     H112489   2.268   4.472   4.018  2.0290 -1.4542 -1.8654
 4159TP3     H212490   2.365   4.505   4.129 -1.4637 -0.5574  1.0976
 4160TP3      O12491   3.142   4.547   4.842 -0.0351  0.8134 -0.0285
 4160TP3     H112492   3.116   4.602   4.768 -0.1428  0.4031 -0.2980
 4160TP3     H212493   3.238   4.544   4.836  0.0403  1.6636  0.4926
 4161TP3      O12494   2.618   5.508   4.462  0.2837 -0.5290 -0.0615
 4161TP3     H112495   2.620   5.525   4.368  0.2142 -0.5610 -0.0681
 4161TP3     H212496   2.687   5.565   4.497 -1.7956  1.9889  0.2737
 4162TP3      O12497   2.508   4.029   4.386 -0.8343  0.1945  0.2265
 4162TP3     H112498   2.526   4.005   4.295 -1.4073 -0.3259  0.2430
 4162TP3     H212499   2.549   4.115   4.397 -0.2233 -0.0182 -0.3407
 4163TP3      O12500   2.847   5.712   3.855  0.0615  0.6398 -0.2431
 4163TP3     H112501   2.877   5.672   3.936  1.7929  0.2769 -1.0296
 4163TP3     H212502   2.925   5.720   3.800 -1.3258 -1.0260 -2.6912
 4164TP3      O12503   3.429   3.770   4.670 -0.0901  0.0671  0.2811
 4164TP3     H112504   3.355   3.759   4.729 -0.0807  1.4957  0.6153
 4164TP3     H212505   3.410   3.851   4.622  1.1038  0.3218  0.1824
 4165TP3      O12506   2.698   5.150   4.057 -0.1185 -0.4108 -0.5306
 4165TP3     H112507   2.646   5.077   4.025 -0.4160 -0.8120  0.8374
 4165TP3     H212508   2.653   5.181   4.135  2.0407 -1.2305  1.1470
 4166TP3      O12509   1.287   4.940   5.530 -0.3058  0.1605 -0.0628
 4166TP3     H112510   1.353   5.008   5.541  0.4143 -0.7256  1.4571
 4166TP3     H212511   1.318   4.888   5.456 -0.4761  1.0131 -0.7569
 4167TP3      O12512   2.011   3.540   5.652 -0.5764 -0.3058 -0.4943
 4167TP3     H112513   2.037   3.465   5.599 -0.7295 -1.1819  0.6526
 4167TP3     H212514   1.935   3.577   5.606 -1.6346 -1.9377 -0.1253
 4168TP3      O12515   1.961   4.390   3.513  0.6434 -0.3297 -0.0881
 4168TP3     H112516   1.917   4.473   3.532  0.5910 -0.2330 -0.6358
 4168TP3     H212517   2.036   4.415   3.459  1.6954 -0.4298  1.2769
 4169TP3      O12518   3.056   4.719   0.735 -0.8145  0.2268 -0.3005
 4169TP3     H112519   3.050   4.624   0.738  0.0918  0.0906  4.1803
 4169TP3     H212520   3.146   4.736   0.707 -1.4688 -0.0096 -2.8616
 4170TP3      O12521   1.302   4.295   4.466 -0.2603  0.0541 -0.5906
 4170TP3     H112522   1.243   4.226   4.495 -0.9200  0.1488 -1.6170
 4170TP3     H212523   1.381   4.284   4.518 -1.5824  0.6276  1.6481
 4171TP3      O12524   3.593   0.267   2.935  0.6643  0.7010  0.1757
 4171TP3     H112525   3.593   0.247   2.841 -1.0369  0.1509  0.2510
 4171TP3     H212526   3.664   0.213   2.971  0.0404 -0.6224 -0.5187
 4172TP3      O12527   2.660   4.440   5.249  0.4431 -0.5728 -0.1783
 4172TP3     H112528   2.605   4.490   5.309 -1.3703 -1.5429 -0.9502
 4172TP3     H212529   2.702   4.374   5.305  0.7934  0.1398  0.4114
 4173TP3      O12530   3.234   5.150   4.751  0.4052 -0.6704  0.4815
 4173TP3     H112531   3.154   5.107   4.782 -0.4488  1.5942  1.6108
 4173TP3     H212532   3.212   5.183   4.664  0.0478  0.0619  0.8433
 4174TP3      O12533   3.643   3.830   4.993  0.5657  0.4768  0.1346
 4174TP3     H112534   3.617   3.782   5.072 -0.4954  0.2651 -0.3200
 4174TP3     H212535   3.650   3.921   5.022  1.5128  0.2122  0.7621
 4175TP3      O12536   3.303   5.574   4.458  0.7366 -0.2775  0.0041
 4175TP3     H112537   3.384   5.542   4.418 -0.0141 -0.8886 -1.1049
 4175TP3     H212538   3.314   5.669   4.461  1.0574 -0.2570 -1.1823
 4176TP3      O12539   2.191   4.321   4.672 -0.1345 -0.8891  0.1738
 4176TP3     H112540   2.282   4.351   4.675  0.0994 -1.4145 -1.2218
 4176TP3     H212541   2.181   4.267   4.751  1.7784 -3.5639 -1.2816
 4177TP3      O12542   3.401   4.469   4.132 -0.6461 -0.4060 -0.4100
 4177TP3     H112543   3.474   4.525   4.103 -0.3965  0.1243  1.1187
 4177TP3     H212544   3.442   4.403   4.188 -1.0694 -1.5779 -1.4373
 4178TP3      O12545   3.786   3.607   3.867  0.2207 -0.6778  0.0039
 4178TP3     H112546   3.867   3.594   3.817 -0.8118 -0.2817 -1.8641
 4178TP3     H212547   3.757   3.518   3.888  0.4152 -0.8830 -0.5635
 4179TP3      O12548   3.193   4.335   3.978 -0.5895 -0.3545  0.0803
 4179TP3     H112549   3.137   4.408   3.950  0.5467  0.9135  1.0095
 4179TP3     H212550   3.274   4.377   4.007  0.2208 -2.0297  0.3242
 4180TP3      O12551   3.467   3.994   5.837  0.3016 -0.0208  0.1304
 4180TP3     H112552   3.421   3.959   5.760  1.0327  0.3838 -0.5018
 4180TP3     H212553   3.496   4.081   5.811  0.9116 -0.0364  0.7241
 4181TP3      O12554   3.564   4.085   5.064  0.4578  0.2368  0.2125
 4181TP3     H112555   3.598   4.173   5.082  1.6261  0.7240 -3.6009
 4181TP3     H212556   3.505   4.097   4.990 -0.0429 -2.1208  0.1511
 4182TP3      O12557   2.033   5.020   3.084 -0.0804  0.3508  0.2193
 4182TP3     H112558   1.942   4.990   3.087  0.6711 -1.9844  1.7077
 4182TP3     H212559   2.032   5.090   3.019 -2.5419 -0.9524 -1.2941
 4183TP3      O12560   2.594   5.679   3.930  0.7539 -0.9024 -0.6392
 4183TP3     H112561   2.686   5.662   3.913  0.9541 -0.5483  0.0562
 4183TP3     H212562   2.567   5.737   3.858  1.6411  0.7529  0.2867
 4184TP3      O12563   2.796   4.462   4.630  0.3514  0.2971 -0.3831
 4184TP3     H112564   2.878   4.509   4.614  0.7466 -0.2774 -0.0681
 4184TP3     H212565   2.781   4.473   4.724  0.2680  0.0731 -0.3706
 4185TP3      O12566   3.202   5.065   3.689  0.2283 -0.1900  0.3695
 4185TP3     H112567   3.109   5.044   3.699 -0.1203 -0.5926 -2.6097
 4185TP3     H212568   3.213   5.148   3.734 -2.0898  0.8518 -0.7838
 4186TP3      O12569   3.487   5.521   4.648  0.2011 -0.4787  0.3764
 4186TP3     H112570   3.573   5.550   4.618  0.5942 -1.3053  0.6865
 4186TP3     H212571   3.430   5.532   4.572  0.4972  0.3809  0.2635
 4187TP3      O12572   2.241   5.742   5.860 -0.1244  0.2497 -0.0949
 4187TP3     H112573   2.158   5.730   5.906 -0.0253  0.6282  0.1831
 4187TP3     H212574   2.247   5.665   5.803  0.2461 -0.7699  1.2679
 4188TP3      O12575   2.209   5.094   4.180 -0.0313 -0.2301 -0.6091
 4188TP3     H112576   2.226   5.003   4.204 -1.5888  0.0176  1.6829
 4188TP3     H212577   2.189   5.090   4.086 -0.9484 -2.4034 -0.3844
 4189TP3      O12578   2.520   5.085   5.298 -0.0434 -0.8995  0.1239
 4189TP3     H112579   2.448   5.146   5.279 -1.0723 -2.3708 -0.9485
 4189TP3     H212580   2.499   5.050   5.384  1.3705  1.3120  1.4484
 4190TP3      O12581   4.174   3.080   5.883  0.5491  0.6122  0.1942
 4190TP3     H112582   4.173   3.074   5.787 -0.5844 -0.8871  0.2692
 4190TP3     H212583   4.127   3.161   5.903 -0.6152  0.1261 -0.4951
 4191TP3      O12584   2.981   4.352   5.053  0.0717  0.3401  1.0968
 4191TP3     H112585   2.942   4.439   5.064  0.9676  1.2191 -1.8197
 4191TP3     H212586   3.075   4.369   5.047  0.1083 -0.4831 -1.7780
 4192TP3      O12587   3.585   5.194   4.597  0.0638  0.0631  0.1080
 4192TP3     H112588   3.672   5.164   4.569 -0.3661 -0.6734 -0.4623
 4192TP3     H212589   3.595   5.288   4.607  0.8671  0.0201 -0.1915
 4193TP3      O12590   1.762   5.465   5.600 -0.2813 -0.5578 -0.1472
 4193TP3     H112591   1.735   5.556   5.593 -2.8937 -1.2030  0.4914
 4193TP3     H212592   1.708   5.419   5.536 -1.4910 -2.0786  1.8537
 4194TP3      O12593   3.123   5.922   4.338 -0.0935  0.5632 -0.0388
 4194TP3     H112594   3.077   5.969   4.407 -0.6605 -1.4812  1.0597
 4194TP3     H212595   3.097   5.967   4.257 -0.3134  2.3086  0.9488
 4195TP3      O12596   3.202   4.054   4.336 -0.2835 -0.0176  0.0856
 4195TP3     H112597   3.162   3.978   4.378  0.7676  0.3739  1.8742
 4195TP3     H212598   3.294   4.031   4.328 -0.2285  0.4598 -0.8319
 4196TP3      O12599   2.472   4.630   4.684  0.3917 -0.0034 -0.0704
 4196TP3     H112600   2.460   4.544   4.723 -0.9339 -0.0193 -0.4868
 4196TP3     H212601   2.567   4.642   4.682  0.6897 -2.1678 -1.5878
 4197TP3      O12602   3.088   4.752   3.735  0.2035  0.1575 -0.2546
 4197TP3     H112603   3.029   4.757   3.660 -0.7289 -1.1939  0.3469
 4197TP3     H212604   3.055   4.818   3.796 -1.7369 -1.6224  0.7384
 4198TP3      O12605   2.691   5.175   5.780  0.0928  0.4718  0.1351
 4198TP3     H112606   2.670   5.137   5.866  0.1606  1.9632  0.8478
 4198TP3     H212607   2.785   5.194   5.784 -0.4261  3.5248  1.0715
 4199TP3      O12608   3.406   3.719   3.860 -0.4214 -0.0367  0.4626
 4199TP3     H112609   3.474   3.696   3.798 -0.3933  0.4917  0.2939
 4199TP3     H212610   3.452   3.762   3.932 -0.6692  1.1551 -0.0764
 4200TP3      O12611   4.017   4.762   4.921  0.4458  0.0766  0.0109
 4200TP3     H112612   3.945   4.818   4.895  1.3094  0.5583 -1.4665
 4200TP3     H212613   4.088   4.823   4.944  0.4992 -0.3878  1.1919
 4201TP3      O12614   4.508   4.246   4.695  0.0129  0.2825  0.2066
 4201TP3     H112615   4.577   4.180   4.698  1.1710  1.4857  1.8518
 4201TP3     H212616   4.440   4.214   4.753 -0.2347 -0.2850 -0.3889
 4202TP3      O12617   1.694   4.893   3.626  0.7444 -0.1363 -0.6522
 4202TP3     H112618   1.662   4.893   3.717 -1.2665  1.8367 -1.2868
 4202TP3     H212619   1.623   4.851   3.576  2.2525 -2.1277 -1.2680
 4203TP3      O12620   2.388   5.665   4.563  0.2321 -0.1755 -0.2190
 4203TP3     H112621   2.461   5.606   4.545 -0.1505 -1.0577  0.9890
 4203TP3     H212622   2.420   5.722   4.633  0.2814  0.4516 -0.7452
 4204TP3      O12623   1.605   4.336   5.845 -0.2088 -0.1618  0.7048
 4204TP3     H112624   1.688   4.296   5.869 -0.1139 -0.1226  0.4508
 4204TP3     H212625   1.626   4.391   5.769  0.2588  2.6019  2.6898
 4205TP3      O12626   3.253   5.056   0.077  0.0148 -0.7154  0.7310
 4205TP3     H112627   3.196   5.018   0.010 -1.3557  0.2575  1.2941
 4205TP3     H212628   3.243   5.000   0.153 -0.6543 -0.2310  1.0092
 4206TP3      O12629   2.624   4.912   0.375  0.6271  0.0342  0.6447
 4206TP3     H112630   2.711   4.952   0.380  2.0401 -2.6954 -0.2635
 4206TP3     H212631   2.617   4.862   0.456  0.3938 -0.6736  0.1857
 4207TP3      O12632   2.850   4.102   5.612 -0.0235  0.1132  0.4646
 4207TP3     H112633   2.818   4.114   5.701 -0.8199 -0.9482  0.3506
 4207TP3     H212634   2.816   4.016   5.586  1.6964 -0.4055 -0.2227
 4208TP3      O12635   4.238   5.480   5.722 -0.2646 -0.1659 -0.1885
 4208TP3     H112636   4.257   5.562   5.678 -2.8480 -0.7335 -2.6808
 4208TP3     H212637   4.294   5.415   5.678  0.5858 -0.0225  0.6595
 4209TP3      O12638   2.947   5.493   0.419  0.2004  0.1665  0.4540
 4209TP3     H112639   2.994   5.559   0.368 -1.4745  0.3410 -0.9292
 4209TP3     H212640   2.906   5.542   0.490 -0.7049  0.5716 -0.3344
 4210TP3      O12641   5.134   3.935   0.924  0.2506  0.1242  0.1356
 4210TP3     H112642   5.070   3.989   0.970 -1.0460  0.0840 -1.5083
 4210TP3     H212643   5.185   3.893   0.993 -3.2538 -1.9984  1.6843
 4211TP3      O12644   3.887   4.726   0.361 -0.0101 -0.6977  0.1223
 4211TP3     H112645   3.821   4.683   0.306  1.4490 -0.4644 -1.9565
 4211TP3     H212646   3.846   4.810   0.385 -0.4607 -0.4925 -1.2349
 4212TP3      O12647   3.723   4.300   5.730  0.2751 -0.2415 -0.5257
 4212TP3     H112648   3.786   4.231   5.749  0.2746 -0.6247 -1.7794
 4212TP3     H212649   3.657   4.293   5.799  0.2119 -1.5790 -0.7102
 4213TP3      O12650   3.463   4.667   0.336  0.2525  0.0388 -0.2049
 4213TP3     H112651   3.556   4.683   0.326  0.3479 -0.2343  0.2288
 4213TP3     H212652   3.451   4.654   0.430 -0.0320 -1.1416 -0.3913
 4214TP3      O12653   2.710   3.345   5.610 -0.4231 -0.5310  0.1373
 4214TP3     H112654   2.801   3.316   5.602  0.1387  0.5823  1.7746
 4214TP3     H212655   2.702   3.372   5.702 -1.1182  3.4054 -0.8791
 4215TP3      O12656   0.692   5.521   0.878  0.2427 -0.4358  0.2919
 4215TP3     H112657   0.690   5.589   0.945  0.6492 -0.6916  0.5632
 4215TP3     H212658   0.660   5.565   0.799 -0.0768 -0.0911  0.6092
 4216TP3      O12659   3.420   4.989   0.593  0.0541 -0.0104 -0.1664
 4216TP3     H112660   3.346   5.037   0.630  0.4561  0.6691 -0.2257
 4216TP3     H212661   3.391   4.898   0.591  0.0634 -0.0877  1.9292
 4217TP3      O12662   2.945   5.049   4.484 -0.0542  0.7126  0.3622
 4217TP3     H112663   2.880   5.111   4.451 -1.8270 -0.3475  1.6896
 4217TP3     H212664   2.896   4.968   4.496  1.1014  0.3341  3.0630
 4218TP3      O12665   2.131   4.627   5.626 -0.1800  0.3505  0.1516
 4218TP3     H112666   2.169   4.713   5.640  1.8356 -0.0690 -2.0530
 4218TP3     H212667   2.199   4.578   5.580 -1.1598 -2.5295  1.5388
 4219TP3      O12668   2.321   4.570   5.138 -0.2501  0.1517  0.9678
 4219TP3     H112669   2.256   4.634   5.109 -0.0782  0.1452  0.5482
 4219TP3     H212670   2.405   4.607   5.111 -0.0902  0.0977  1.3863
 4220TP3      O12671   3.903   5.792   5.855  0.8420 -0.2350 -0.1631
 4220TP3     H112672   3.905   5.724   5.923 -0.6625 -1.3915 -1.2093
 4220TP3     H212673   3.877   5.871   5.902  0.3232 -0.8889  0.6952
 4221TP3      O12674   1.977   4.048   0.597  0.7992 -0.5741  0.0238
 4221TP3     H112675   1.980   3.961   0.636  3.0225 -0.7962 -0.4938
 4221TP3     H212676   2.026   4.039   0.515 -0.2778  0.8166 -0.8263
 4222TP3      O12677   3.589   4.719   5.121 -0.2883  0.3385 -0.1289
 4222TP3     H112678   3.559   4.794   5.069 -2.3376 -1.0294 -1.0451
 4222TP3     H212679   3.658   4.680   5.068  0.0516  0.9386 -0.1459
 4223TP3      O12680   3.875   5.687   5.169 -0.0397  0.4173 -0.1802
 4223TP3     H112681   3.939   5.648   5.229 -0.5344  0.0304  0.1032
 4223TP3     H212682   3.824   5.745   5.225 -1.3303 -0.8966  0.0659
 4224TP3      O12683   2.665   5.336   5.478 -0.3123  0.0402 -0.6119
 4224TP3     H112684   2.586   5.307   5.524 -0.1713  0.1603 -0.2907
 4224TP3     H212685   2.725   5.362   5.548  0.1213 -0.3321 -0.8426
 4225TP3      O12686   3.722   5.384   0.130 -0.6360 -0.3298 -0.2737
 4225TP3     H112687   3.784   5.337   0.185  1.5440  1.3037 -1.1505
 4225TP3     H212688   3.704   5.325   0.057  0.2654 -0.6795 -0.2243
 4226TP3      O12689   3.202   4.070   5.670 -0.0087 -0.1752 -0.0249
 4226TP3     H112690   3.216   4.003   5.604 -0.1553 -1.2303  0.9869
 4226TP3     H212691   3.109   4.063   5.693 -0.1130  0.6254 -0.1780
 4227TP3      O12692   2.937   4.545   0.271  0.0430  0.7355 -0.6117
 4227TP3     H112693   2.920   4.474   0.333 -3.0435  0.9100 -1.1467
 4227TP3     H212694   2.944   4.623   0.326  1.3496  0.3589 -0.2031
 4228TP3      O12695   2.883   5.434   5.566  0.2917 -0.4718 -0.1864
 4228TP3     H112696   2.930   5.456   5.486 -0.4204  0.6938 -0.2958
 4228TP3     H212697   2.906   5.503   5.628 -0.8929 -0.1284 -0.0948
 4229TP3      O12698   2.963   5.266   5.777  0.0279  0.4308 -0.3669
 4229TP3     H112699   3.014   5.199   5.732 -1.0356  0.3235 -1.4592
 4229TP3     H212700   2.937   5.327   5.708 -0.7753  0.8327  0.2689
 4230TP3      O12701   1.811   4.161   5.888 -0.2928  0.1692 -0.4047
 4230TP3     H112702   1.850   4.180   5.974 -0.1349  0.7754 -0.6078
 4230TP3     H212703   1.866   4.090   5.853  0.2599  0.6076 -0.4353
 4231TP3      O12704   2.920   4.629  -0.000 -0.2045 -0.7483 -0.1137
 4231TP3     H112705   2.902   4.608   0.091 -2.1298  0.2076 -0.2202
 4231TP3     H212706   2.930   4.725  -0.001  0.0840 -0.7788 -0.8667
 4232TP3      O12707   3.206   3.984   0.020 -0.5106  0.6320  0.1855
 4232TP3     H112708   3.231   4.061   0.071  0.2806  0.6606 -0.2285
 4232TP3     H212709   3.199   4.016  -0.070  0.8047  0.0244 -0.1455
 4233TP3      O12710   5.637   5.460   0.116 -0.0401  0.3298 -0.1644
 4233TP3     H112711   5.586   5.498   0.044 -0.0894  1.1403  0.2856
 4233TP3     H212712   5.714   5.516   0.123  0.2533 -0.0938  0.0346
 4234TP3      O12713   3.665   5.187   4.961 -0.2921 -0.5565  0.1266
 4234TP3     H112714   3.655   5.278   4.932  0.7936 -0.6884 -0.7119
 4234TP3     H212715   3.585   5.143   4.931 -1.3507  0.3284  1.4953
 4235TP3      O12716   1.702   4.279   0.420 -0.3153  0.8092  0.3986
 4235TP3     H112717   1.615   4.295   0.456  0.2639 -1.2785  3.1402
 4235TP3     H212718   1.745   4.224   0.486  2.4066  0.1094 -1.7592
 4236TP3      O12719   3.567   4.300   5.952 -0.3307 -0.9032 -0.0188
 4236TP3     H112720   3.496   4.301   5.887 -0.2390  0.0990 -0.1292
 4236TP3     H212721   3.532   4.352   6.025 -0.4118 -1.9791  0.7236
 4237TP3      O12722   2.384   4.539   0.371 -0.0013  0.3974  0.0831
 4237TP3     H112723   2.391   4.447   0.343  0.7150 -0.1436  1.9203
 4237TP3     H212724   2.302   4.542   0.420 -1.7858  1.5776 -2.7146
 4238TP3      O12725   2.380   5.444   0.052 -0.2620  0.9940  0.4194
 4238TP3     H112726   2.416   5.515  -0.001 -0.9131  1.4288  0.5579
 4238TP3     H212727   2.345   5.487   0.130 -0.8526  0.5496  0.4021
 4239TP3      O12728   3.077   4.443   5.865  0.2657  0.0802  0.2153
 4239TP3     H112729   3.004   4.491   5.904 -0.2665  1.3408 -2.0992
 4239TP3     H212730   3.052   4.434   5.772  2.9854  0.5026 -0.6355
 4240TP3      O12731   2.535   6.028   5.829 -0.4006 -0.3498 -0.7821
 4240TP3     H112732   2.566   6.008   5.917 -0.9827  0.2044 -0.4455
 4240TP3     H212733   2.534   5.943   5.784 -0.1366 -0.6391 -0.2491
 4241TP3      O12734   2.313   4.930   1.186  0.3088  0.6833  0.6506
 4241TP3     H112735   2.304   5.007   1.242 -0.8939  0.8402  0.2629
 4241TP3     H212736   2.340   4.964   1.102 -1.0211  0.8013  0.2413
 4242TP3      O12737   1.714   5.162   0.230  0.1596 -0.5787  0.2388
 4242TP3     H112738   1.806   5.141   0.219  0.7629  1.4352  1.1009
 4242TP3     H212739   1.676   5.082   0.267  1.7599 -1.0978  0.8580
 4243TP3      O12740   1.892   4.249   0.155  1.0118  0.2306 -0.3401
 4243TP3     H112741   1.945   4.321   0.189 -0.4429  0.9188  0.5736
 4243TP3     H212742   1.816   4.246   0.214  0.2391 -0.9842 -1.3577
 4244TP3      O12743   2.413   3.378   0.308 -0.5125  0.0824  0.0096
 4244TP3     H112744   2.319   3.374   0.325 -0.2644  0.3078  1.5433
 4244TP3     H212745   2.424   3.332   0.224 -1.9808  0.1167 -0.2285
 4245TP3      O12746   3.252   4.836   5.730 -0.3268 -0.7771 -0.2874
 4245TP3     H112747   3.310   4.863   5.802 -2.0063 -0.7082  1.0873
 4245TP3     H212748   3.249   4.913   5.672  1.2219 -0.9149 -0.5991
 4246TP3      O12749   2.482   5.328   5.697 -0.9778 -0.1064 -0.1926
 4246TP3     H112750   2.398   5.313   5.740 -1.7429  1.5882 -1.0097
 4246TP3     H212751   2.547   5.309   5.765 -1.7155 -4.8148 -0.4615
 4247TP3      O12752   2.628   5.277   4.949 -0.3096 -0.4757 -0.2315
 4247TP3     H112753   2.573   5.302   4.875 -0.2126  0.3422 -0.0376
 4247TP3     H212754   2.579   5.305   5.027  0.7047  1.0174 -0.0766
 4248TP3      O12755   2.317   4.832   4.795  0.0437  0.2408  0.1932
 4248TP3     H112756   2.335   4.751   4.749  1.0957 -0.4842  1.7926
 4248TP3     H212757   2.229   4.819   4.832  0.4341 -0.4433  0.9246
 4249TP3      O12758   3.111   3.616   0.284  0.5414  0.2306  0.6201
 4249TP3     H112759   3.127   3.675   0.210 -0.6314  1.9004  1.6443
 4249TP3     H212760   3.087   3.533   0.243  2.6298  0.2589 -0.8586
 4250TP3      O12761   1.686   5.658   0.010 -0.3905  0.0558 -0.5324
 4250TP3     H112762   1.749   5.614  -0.046 -0.7311  0.6653 -1.4335
 4250TP3     H212763   1.738   5.722   0.059 -0.1726 -0.0655 -0.6039
 4251TP3      O12764   2.508   5.624   0.317  0.5616 -0.3976 -0.0409
 4251TP3     H112765   2.523   5.647   0.225  0.6171 -2.6789 -0.6743
 4251TP3     H212766   2.414   5.613   0.324  0.6099 -0.7784  0.0218
 4252TP3      O12767   2.686   5.242   0.260 -0.0692  0.2147 -0.5674
 4252TP3     H112768   2.746   5.167   0.254  1.0425  1.0793 -0.7217
 4252TP3     H212769   2.739   5.311   0.301 -0.1912  1.7411 -2.8280
 4253TP3      O12770   1.322   4.852   0.182 -0.2655  0.0926 -0.3965
 4253TP3     H112771   1.391   4.791   0.210  0.1400 -0.1033 -1.7310
 4253TP3     H212772   1.284   4.811   0.104 -0.6649  1.0717 -0.7371
 4254TP3      O12773   3.346   0.707   0.675 -0.0649 -0.8322  0.8159
 4254TP3     H112774   3.439   0.688   0.662 -0.1250 -0.7637  0.2606
 4254TP3     H212775   3.341   0.801   0.688 -0.2500 -0.5077 -1.2151
 4255TP3      O12776   2.467   5.905   1.117 -0.0148 -0.1715 -0.3302
 4255TP3     H112777   2.400   5.958   1.074 -0.0173 -0.5575 -0.8267
 4255TP3     H212778   2.447   5.911   1.210 -2.2027 -2.1406 -0.5604
 4256TP3      O12779   3.384   0.552   1.176  0.0342  0.0596  0.2015
 4256TP3     H112780   3.372   0.485   1.243 -0.3983 -0.5558 -0.4722
 4256TP3     H212781   3.297   0.591   1.167 -0.0034 -0.1275 -0.2701
 4257TP3      O12782   2.608   5.223   0.803 -0.0444 -0.1778 -0.4007
 4257TP3     H112783   2.688   5.195   0.758 -0.3486 -1.4571 -0.1809
 4257TP3     H212784   2.640   5.272   0.879  0.6143 -2.3008  0.7571
 4258TP3      O12785   2.360   5.558   1.036 -0.5628  0.6026 -0.0599
 4258TP3     H112786   2.409   5.636   1.061  0.2604  0.4327 -1.0330
 4258TP3     H212787   2.272   5.573   1.069 -0.6976  2.4078 -1.0662
 4259TP3      O12788   3.332   5.855   0.925 -0.1372 -0.1209  0.4418
 4259TP3     H112789   3.294   5.888   0.844  1.8158 -0.1421 -0.5305
 4259TP3     H212790   3.270   5.882   0.994 -0.8124  1.6393 -0.8085
 4260TP3      O12791   2.402   0.092   0.140  0.4617 -0.5578  0.2586
 4260TP3     H112792   2.315   0.068   0.110 -0.2037  2.0166 -0.1314
 4260TP3     H212793   2.427   0.021   0.199 -0.2348 -3.3203 -2.4556
 4261TP3      O12794   2.409   5.103   1.523 -0.1395  0.2008 -0.4613
 4261TP3     H112795   2.333   5.053   1.551  0.8761 -0.9367  0.3648
 4261TP3     H212796   2.483   5.060   1.565  0.6816  3.4105  1.7041
 4262TP3      O12797   2.968   4.804   0.330 -0.0713  0.1384  0.0532
 4262TP3     H112798   2.948   4.856   0.251 -4.1027  0.4970  1.0711
 4262TP3     H212799   2.942   4.860   0.403 -2.2073 -2.2804  1.3120
 4263TP3      O12800   3.833   5.474   2.579  0.3613 -0.6449 -0.0939
 4263TP3     H112801   3.819   5.467   2.673  0.2549  0.2312 -0.0340
 4263TP3     H212802   3.928   5.486   2.569  0.4178 -1.1025 -0.1271
 4264TP3      O12803   2.833   0.628   0.337 -0.1662  0.9210 -0.4968
 4264TP3     H112804   2.915   0.658   0.376  1.4334  0.6393 -3.3387
 4264TP3     H212805   2.832   0.534   0.352 -0.1222  0.9648 -0.2142
 4265TP3      O12806   1.677   5.822   1.861  0.2653  0.7527  0.4766
 4265TP3     H112807   1.679   5.729   1.882  1.2064  0.6665  0.0871
 4265TP3     H212808   1.584   5.845   1.859 -0.0630 -0.5669 -1.1109
 4266TP3      O12809   3.823   0.320   1.930  0.1996  0.0468  0.7229
 4266TP3     H112810   3.754   0.270   1.886 -0.3587  0.4243  1.1581
 4266TP3     H212811   3.779   0.400   1.959  0.6517 -0.0260  1.6230
 4267TP3      O12812   1.686   5.375   0.422 -0.0151 -0.4420 -0.6307
 4267TP3     H112813   1.700   5.306   0.357  5.0718  0.0996 -0.5458
 4267TP3     H212814   1.668   5.453   0.370 -0.2158 -0.7808 -1.0820
 4268TP3      O12815   2.925   4.823   4.655  0.1390 -0.2374 -0.2588
 4268TP3     H112816   2.929   4.879   4.733 -1.5204 -0.9226  0.3688
 4268TP3     H212817   2.999   4.763   4.664  1.2798  1.1047 -0.3756
 4269TP3      O12818   2.454   0.430   0.623  0.2194  0.6860  0.2354
 4269TP3     H112819   2.454   0.433   0.527 -0.1543  1.3939  0.2515
 4269TP3     H212820   2.546   0.440   0.648  0.2712  0.8921 -0.0372
 4270TP3      O12821   3.703   5.182   5.871 -0.1934 -0.3525  0.1728
 4270TP3     H112822   3.679   5.238   5.797 -0.1683 -1.1870 -0.4917
 4270TP3     H212823   3.792   5.152   5.850 -0.5040 -1.2721  0.1005
 4271TP3      O12824   3.691   0.077   5.333  0.6127  0.0137 -0.3334
 4271TP3     H112825   3.726   0.107   5.417  0.4558 -0.3340 -0.1386
 4271TP3     H212826   3.596   0.081   5.345  0.5342  2.0749 -1.2577
 4272TP3      O12827   2.543   5.717   2.312  0.0269 -0.0698 -0.8776
 4272TP3     H112828   2.511   5.628   2.323 -0.9542  0.0482 -2.4417
 4272TP3     H212829   2.469   5.765   2.274  1.4778  0.6125 -3.0583
 4273TP3      O12830   2.667   5.689   1.453  0.3318 -0.2197  0.4594
 4273TP3     H112831   2.620   5.667   1.372  0.3580  0.3644  0.2860
 4273TP3     H212832   2.656   5.611   1.508  1.5301 -1.2078 -0.6540
 4274TP3      O12833   2.934   5.661   1.475  0.1005 -0.4361  0.2542
 4274TP3     H112834   2.844   5.692   1.479  0.1678 -0.1567 -0.3257
 4274TP3     H212835   2.953   5.654   1.381  0.3791 -1.3665  0.3674
 4275TP3      O12836   1.819   5.002   0.659 -0.4491 -0.6680  0.4545
 4275TP3     H112837   1.884   4.934   0.674 -0.0557 -0.2386  0.7610
 4275TP3     H212838   1.787   5.024   0.747 -0.1752 -0.0813  0.4118
 4276TP3      O12839   2.133   5.451   0.744  0.1901  0.4917 -0.2998
 4276TP3     H112840   2.042   5.449   0.715  0.0470  1.2644  0.0774
 4276TP3     H212841   2.134   5.395   0.822  0.7732 -2.4125 -2.2175
 4277TP3      O12842   1.783   4.893   0.387  0.4211 -0.4753  0.0882
 4277TP3     H112843   1.756   4.933   0.470 -0.2718 -1.4557  0.3598
 4277TP3     H212844   1.795   4.801   0.408  0.0780 -0.7669 -0.9290
 4278TP3      O12845   4.577   5.945   0.803  0.1082  0.4080 -0.1851
 4278TP3     H112846   4.568   6.001   0.880  1.9679 -0.1158  0.4623
 4278TP3     H212847   4.636   5.993   0.745  2.6224 -1.1908  0.8328
 4279TP3      O12848   1.768   0.534   0.231  0.9623 -0.5676 -0.2476
 4279TP3     H112849   1.704   0.531   0.302  0.3612 -0.8874 -0.7919
 4279TP3     H212850   1.805   0.622   0.235 -0.0072 -0.1521 -0.3587
 4280TP3      O12851   3.705   5.339   0.746  0.2013 -0.6980 -0.6327
 4280TP3     H112852   3.684   5.427   0.713 -0.4440 -0.8807 -0.7201
 4280TP3     H212853   3.632   5.285   0.718 -0.0161 -1.0083  0.4962
 4281TP3      O12854   2.852   5.771   1.107 -0.4176  0.0020  0.0492
 4281TP3     H112855   2.863   5.691   1.158  0.6292 -0.1945 -0.4818
 4281TP3     H212856   2.758   5.773   1.086 -0.6375 -0.5380  0.9367
 4282TP3      O12857   2.566   5.417   5.172 -0.0695  0.5158 -0.5917
 4282TP3     H112858   2.633   5.485   5.177  2.0194 -1.4405 -0.8486
 4282TP3     H212859   2.548   5.394   5.263 -0.3917  1.0055 -0.5252
 4283TP3      O12860   3.485   5.513   5.271 -0.6610 -0.0080 -0.4304
 4283TP3     H112861   3.566   5.532   5.319  0.3929 -3.9118 -0.3553
 4283TP3     H212862   3.510   5.519   5.179  0.4238 -3.2211 -0.4366
 4284TP3      O12863   4.000   0.224   1.721  0.7109 -0.2131  0.4231
 4284TP3     H112864   3.922   0.218   1.667  0.9306 -2.3856  0.2393
 4284TP3     H212865   3.977   0.284   1.792 -0.3052  0.9760 -0.8821
 4285TP3      O12866   3.508   5.518   0.253  0.4776 -0.1468 -0.6563
 4285TP3     H112867   3.568   5.466   0.200  0.0822 -0.5408 -0.7156
 4285TP3     H212868   3.471   5.457   0.316  0.1107  0.0886 -0.6390
 4286TP3      O12869   2.788   0.013   2.551 -0.0630  0.0156 -0.0268
 4286TP3     H112870   2.764  -0.016   2.462  0.2808 -0.3024 -0.0169
 4286TP3     H212871   2.807   0.106   2.541  0.3688 -0.1063 -0.3675
 4287TP3      O12872   2.503   0.746   1.366 -0.1429  0.7450 -0.7964
 4287TP3     H112873   2.484   0.666   1.415 -2.5676  0.1022 -2.5951
 4287TP3     H212874   2.477   0.726   1.277  3.7958  1.9696 -2.4376
 4288TP3      O12875   1.607   5.603   0.263  0.2682  0.0524  0.3887
 4288TP3     H112876   1.646   5.648   0.188  0.3925 -1.1354 -0.2856
 4288TP3     H212877   1.514   5.599   0.242  0.4729 -1.5068 -0.4193
 4289TP3      O12878   3.181   5.678   0.717 -0.8483  0.7065  0.0020
 4289TP3     H112879   3.156   5.720   0.799  0.0339  0.3964  0.4461
 4289TP3     H212880   3.157   5.741   0.649 -0.7268  1.3735  0.5649
 4290TP3      O12881   3.414   0.169   1.692  0.0954  0.0576  0.2143
 4290TP3     H112882   3.337   0.193   1.641 -0.5895 -3.3190 -0.6180
 4290TP3     H212883   3.396   0.203   1.780 -1.7801  0.3752 -0.2530
 4291TP3      O12884   4.254   0.199   1.365 -0.3018  1.0532 -0.5304
 4291TP3     H112885   4.257   0.143   1.443 -1.7202  0.5404 -0.8260
 4291TP3     H212886   4.342   0.190   1.327 -0.0542  0.1438  0.1989
 4292TP3      O12887   3.171   0.048   2.375 -0.3195  0.3664 -0.5447
 4292TP3     H112888   3.226   0.059   2.297 -0.8554  1.8819 -0.7461
 4292TP3     H212889   3.083   0.072   2.345 -1.4309 -3.1587 -0.5664
 4293TP3      O12890   3.174   5.674   1.327  0.1464  0.6129  0.1272
 4293TP3     H112891   3.162   5.611   1.398  1.9514 -1.6732 -1.3959
 4293TP3     H212892   3.266   5.700   1.334 -0.8341  4.2923  1.4925
 4294TP3      O12893   2.819   5.687   0.178 -0.4788 -0.8733 -0.5514
 4294TP3     H112894   2.779   5.625   0.116  2.4314 -2.5555 -0.9085
 4294TP3     H212895   2.901   5.712   0.137 -0.5126  1.5134  0.6763
 4295TP3      O12896   2.623   5.498   0.550  0.0761 -0.2437  0.0577
 4295TP3     H112897   2.550   5.450   0.588  1.1056 -1.9839 -0.0629
 4295TP3     H212898   2.592   5.527   0.465  0.1438 -2.8214 -0.9408
 4296TP3      O12899   3.760   5.417   1.353 -0.1662 -0.3307  0.3217
 4296TP3     H112900   3.807   5.403   1.435  2.4486  0.7801 -0.8975
 4296TP3     H212901   3.779   5.339   1.302 -1.2398 -0.7129  0.4740
 4297TP3      O12902   1.552   0.779   3.479  0.3461 -0.2581 -0.6747
 4297TP3     H112903   1.635   0.787   3.525 -1.4588  0.9360  2.7464
 4297TP3     H212904   1.507   0.707   3.523 -1.4694  0.8906 -0.5368
 4298TP3      O12905   2.257   5.573   2.092 -0.3909  0.3401  0.2262
 4298TP3     H112906   2.207   5.510   2.040  0.2879  1.1988 -1.5325
 4298TP3     H212907   2.304   5.520   2.156 -2.0935 -0.6493  0.7094
 4299TP3      O12908   3.392   5.918   1.593 -0.8104  0.3160  0.2079
 4299TP3     H112909   3.339   5.949   1.519 -0.3216  0.4922 -0.0784
 4299TP3     H212910   3.416   5.998   1.640 -0.4073  0.2832  0.0636
 4300TP3      O12911   2.091   5.406   3.429  0.0124 -0.0017  0.6371
 4300TP3     H112912   2.073   5.386   3.520  1.0061 -0.3926  0.7591
 4300TP3     H212913   2.085   5.322   3.384  0.0935  0.0956  0.4395
 4301TP3      O12914   2.721   0.450   3.038 -0.3359  0.0058  0.6117
 4301TP3     H112915   2.798   0.397   3.019 -1.5683 -1.9672  0.8353
 4301TP3     H212916   2.647   0.393   3.015 -1.7984  2.6804 -2.0885
 4302TP3      O12917   3.091   5.418   3.687 -0.0136  0.3769 -0.4197
 4302TP3     H112918   3.107   5.339   3.738  2.0734  0.2657 -1.1636
 4302TP3     H212919   3.053   5.480   3.750  0.8828 -0.3224  0.8627
 4303TP3      O12920   2.652   5.619   3.040 -0.4878 -0.5247 -0.3256
 4303TP3     H112921   2.677   5.635   3.131  0.8357 -1.7062 -0.4561
 4303TP3     H212922   2.564   5.583   3.046 -0.4016 -0.6325  0.4910
 4304TP3      O12923   1.583   5.916   3.472  0.4908  0.0756  0.0568
 4304TP3     H112924   1.545   5.930   3.558  0.5459 -1.0970  0.2912
 4304TP3     H212925   1.511   5.929   3.411 -0.7120 -3.3707  0.5628
 4305TP3      O12926   2.762   5.895   3.289  0.1676  0.0423 -0.2742
 4305TP3     H112927   2.755   5.799   3.282 -0.9808  0.0151  0.8111
 4305TP3     H212928   2.847   5.910   3.329  1.0518 -0.4213 -1.8942
 4306TP3      O12929   3.011   5.895   1.705 -0.2115  0.0022  0.1792
 4306TP3     H112930   2.997   5.802   1.689 -0.2950  0.1139 -0.4260
 4306TP3     H212931   2.998   5.905   1.799  2.6085 -1.0813  0.7731
 4307TP3      O12932   1.859   5.843   2.295 -0.0844  0.4103  0.0833
 4307TP3     H112933   1.858   5.763   2.243 -1.7220  0.0934  0.5460
 4307TP3     H212934   1.789   5.831   2.359 -0.6821  2.3848 -0.1330
 4308TP3      O12935   1.887   0.187   3.322 -0.5849  0.4144  0.8520
 4308TP3     H112936   1.796   0.175   3.298  0.1748 -1.1024 -1.5698
 4308TP3     H212937   1.890   0.164   3.415 -2.1973 -2.5314  0.2979
 4309TP3      O12938   3.015   5.083   1.980 -0.2659 -0.3282  0.4607
 4309TP3     H112939   3.009   5.160   2.037  1.6105  0.1993  0.0261
 4309TP3     H212940   3.069   5.021   2.029 -0.1427 -0.5903 -0.0000
 4310TP3      O12941   2.454   0.445   3.609  0.3605  0.3016  0.1788
 4310TP3     H112942   2.539   0.489   3.610  0.4049  0.2458  1.6445
 4310TP3     H212943   2.443   0.413   3.699 -0.8079 -0.4693 -0.2197
 4311TP3      O12944   2.786   0.191   1.667  0.5745  0.4825 -0.7681
 4311TP3     H112945   2.843   0.244   1.723 -0.3701  0.7500 -0.0291
 4311TP3     H212946   2.843   0.123   1.632  1.8739  2.0922 -1.9371
 4312TP3      O12947   2.308   0.575   4.199 -0.4161 -0.2453  0.5372
 4312TP3     H112948   2.363   0.497   4.197  0.0868  0.0857 -1.8753
 4312TP3     H212949   2.310   0.604   4.290  2.1868 -1.0861  0.8138
 4313TP3      O12950   2.450   5.969   2.499 -0.1120 -0.3488 -0.7068
 4313TP3     H112951   2.499   5.991   2.420  1.6703  3.0972  1.1352
 4313TP3     H212952   2.381   6.035   2.503  1.1764  0.9505  1.6357
 4314TP3      O12953   1.650   0.663   2.003  0.0159 -0.3961 -0.1783
 4314TP3     H112954   1.593   0.591   2.032 -1.0472  1.5677  3.0855
 4314TP3     H212955   1.719   0.668   2.069  0.0720  1.5611 -0.3180
 4315TP3      O12956   1.787   0.444   1.825  0.3321  0.0277  0.1662
 4315TP3     H112957   1.877   0.411   1.815  0.7954  1.4800 -0.6908
 4315TP3     H212958   1.764   0.420   1.915  1.6263 -0.2470  0.4574
 4316TP3      O12959   3.585   5.783   2.698  0.0497  0.3073  0.3245
 4316TP3     H112960   3.503   5.819   2.664 -0.7506 -0.5509  1.2917
 4316TP3     H212961   3.562   5.749   2.784  0.8025 -2.2752 -0.4125
 4317TP3      O12962   2.208   0.088   2.539 -0.2560 -0.8474  0.5507
 4317TP3     H112963   2.217   0.065   2.632  0.4258 -0.7045  0.5295
 4317TP3     H212964   2.176   0.008   2.498 -1.3808 -0.6614  1.0357
 4318TP3      O12965   3.212   5.523   2.586 -0.3787 -0.0924  0.6057
 4318TP3     H112966   3.173   5.511   2.499 -1.5688  0.6755  1.0125
 4318TP3     H212967   3.306   5.511   2.571 -0.6922 -1.4943 -0.4923
 4319TP3      O12968   1.849   5.884   2.845  0.4692  0.6068  0.9647
 4319TP3     H112969   1.874   5.940   2.919 -0.8405  0.7686  1.3224
 4319TP3     H212970   1.755   5.901   2.833  0.6665  0.6283 -0.7925
 4320TP3      O12971   3.094   0.448   3.878  0.3264  0.1136  0.3820
 4320TP3     H112972   3.142   0.377   3.836  2.3352  0.9561  1.1404
 4320TP3     H212973   3.063   0.502   3.805  2.7408  0.9096 -0.1446
 4321TP3      O12974   2.222   0.242   2.993 -0.2833 -0.0311  0.0691
 4321TP3     H112975   2.148   0.288   2.954 -1.5268 -1.4197  0.7007
 4321TP3     H212976   2.238   0.287   3.076 -1.0997 -0.3288  0.4000
 4322TP3      O12977   2.185   5.883   3.957 -0.3399 -0.6011  0.1627
 4322TP3     H112978   2.205   5.976   3.945 -1.4520 -0.1455  1.5555
 4322TP3     H212979   2.229   5.839   3.884  2.5219  0.6755  0.9594
 4323TP3      O12980   1.159   0.665   3.217  0.1165 -0.3754  0.6183
 4323TP3     H112981   1.178   0.631   3.130 -0.8262  1.7763 -0.4984
 4323TP3     H212982   1.094   0.604   3.253  0.1616 -1.0252 -0.3664
 4324TP3      O12983   3.372   5.614   3.127  0.6492  0.2150 -0.1448
 4324TP3     H112984   3.348   5.666   3.204 -1.0428  0.6918 -0.9330
 4324TP3     H212985   3.302   5.633   3.063  2.0044 -0.1334 -1.8103
 4325TP3      O12986   1.526   5.966   2.503 -0.3062 -0.7728 -0.2760
 4325TP3     H112987   1.569   6.034   2.555  1.3159 -3.0325  1.5730
 4325TP3     H212988   1.434   5.973   2.525 -0.3570  1.5231 -1.0466
 4326TP3      O12989   4.935   5.641   2.209  0.4179 -0.0376 -0.3042
 4326TP3     H112990   4.860   5.610   2.260  0.3057  0.1851 -0.3352
 4326TP3     H212991   4.899   5.660   2.122  0.2961  1.0872 -0.0198
 4327TP3      O12992   1.877   5.582   3.400  0.5751  0.5035 -0.1532
 4327TP3     H112993   1.884   5.617   3.489  0.3445 -0.5555  0.3018
 4327TP3     H212994   1.956   5.530   3.388  0.8850  1.1136 -0.7916
 4328TP3      O12995   3.089   0.082   3.111  0.0237 -0.2697  0.0920
 4328TP3     H112996   3.125   0.065   3.024 -2.1824  1.9259 -1.4086
 4328TP3     H212997   3.008   0.030   3.114  0.6582 -1.2315  1.3443
 4329TP3      O12998   2.092   5.494   2.369 -0.1239  0.4017 -0.1618
 4329TP3     H112999   2.158   5.447   2.420  1.8714  2.0003 -1.1258
 4329TP3     H213000   2.049   5.552   2.432 -1.4346 -1.4183  0.6874
 4330TP3      O13001   3.295   5.807   2.746 -0.2821  0.1710 -0.4728
 4330TP3     H113002   3.312   5.713   2.757  0.5252  0.3610  0.0230
 4330TP3     H213003   3.286   5.819   2.651  0.9734 -0.2076 -0.6575
 4331TP3      O13004   2.761   5.884   2.982  0.3244 -0.1948  0.2583
 4331TP3     H113005   2.781   5.899   3.074 -0.4153  0.1191  0.3742
 4331TP3     H213006   2.669   5.908   2.973  0.1238 -1.1492 -0.3576
 4332TP3      O13007   3.255   5.846   3.245  0.6210 -0.0539  0.7034
 4332TP3     H113008   3.205   5.843   3.164 -0.4083  1.5422  1.2181
 4332TP3     H213009   3.203   5.794   3.307  0.7007 -0.1658  0.6746
 4333TP3      O13010   3.372   5.950   3.465 -0.0826 -0.2271 -0.4741
 4333TP3     H113011   3.316   5.952   3.387  0.3047  1.8480 -0.7591
 4333TP3     H213012   3.425   5.871   3.454 -1.2862 -0.9413 -1.3832
 4334TP3      O13013   1.788   0.422   2.599  0.4570 -0.1640  0.6292
 4334TP3     H113014   1.829   0.508   2.607 -2.1656  1.2513 -0.2549
 4334TP3     H213015   1.844   0.365   2.653  1.1405  2.4692  2.9714
 4335TP3      O13016   2.611   5.494   1.638  0.1409 -0.7737  0.4266
 4335TP3     H113017   2.624   5.440   1.716 -1.2601  0.0390  1.2556
 4335TP3     H213018   2.516   5.498   1.628  0.2347 -2.7452 -2.6829
 4336TP3      O13019   3.288   0.170   2.174  0.3107  0.6898  0.2851
 4336TP3     H113020   3.253   0.177   2.085  2.0190 -1.0456 -0.5926
 4336TP3     H213021   3.371   0.218   2.171 -0.0155  1.3451  1.2183
 4337TP3      O13022   3.784   5.572   4.177  0.1791  0.5013 -0.9148
 4337TP3     H113023   3.836   5.604   4.103  1.2257  1.2445  0.0969
 4337TP3     H213024   3.807   5.480   4.184  3.0886  1.2217  0.7688
 4338TP3      O13025   3.112   5.786   3.022  0.2339 -0.3494 -1.0883
 4338TP3     H113026   3.026   5.745   3.019  0.5028 -0.9998 -0.1839
 4338TP3     H213027   3.138   5.794   2.930 -1.2451  0.8756 -1.4519
 4339TP3      O13028   3.092   5.676   3.441 -0.1236 -0.1900 -0.4115
 4339TP3     H113029   3.028   5.606   3.427 -1.7713  1.2350 -0.3677
 4339TP3     H213030   3.132   5.656   3.525 -0.8385 -0.8901 -0.2303
 4340TP3      O13031   2.741   5.641   3.350  0.2475  1.1848  0.1157
 4340TP3     H113032   2.804   5.569   3.354 -0.4325  0.5917  0.1353
 4340TP3     H213033   2.721   5.660   3.442  0.2318  1.2362  0.1019
 4341TP3      O13034   3.086   4.703   1.984 -0.5587  0.3977 -0.1214
 4341TP3     H113035   3.135   4.741   1.911 -1.1128  1.2043 -0.0902
 4341TP3     H213036   3.146   4.640   2.023 -0.9521 -1.6641 -2.5676
 4342TP3      O13037   4.071   5.789   2.605 -0.0789  0.3364  0.1204
 4342TP3     H113038   4.099   5.736   2.530  3.0751  2.6283 -0.5250
 4342TP3     H213039   4.089   5.879   2.578  0.2746  1.3317  3.2783
 4343TP3      O13040   3.660   5.361   2.007  0.0399  0.1356  1.2101
 4343TP3     H113041   3.565   5.355   1.993  0.3885  0.4665 -2.1405
 4343TP3     H213042   3.690   5.270   2.003  0.2215  0.2281 -2.0648
 4344TP3      O13043   1.770   0.352   3.918 -0.1895  0.7552 -0.2057
 4344TP3     H113044   1.725   0.372   4.000  0.1673  0.7275  0.0020
 4344TP3     H213045   1.778   0.436   3.873 -0.5027  0.7490 -0.2710
 4345TP3      O13046   1.897   5.386   4.376  0.0859  0.8867 -0.4259
 4345TP3     H113047   1.967   5.337   4.418 -0.8565 -1.1342 -1.0671
 4345TP3     H213048   1.844   5.418   4.449  0.7803  1.0343  0.0211
 4346TP3      O13049   3.738   1.100   3.672  0.3229  0.0420 -0.0838
 4346TP3     H113050   3.772   1.133   3.588 -0.8050 -0.6851 -0.8573
 4346TP3     H213051   3.666   1.043   3.647  0.7881 -1.2181  1.3322
 4347TP3      O13052   2.775   5.851   4.849  0.1655 -0.2495  0.5267
 4347TP3     H113053   2.692   5.838   4.804 -1.3580 -1.4601  3.4121
 4347TP3     H213054   2.769   5.938   4.887  0.4266 -0.1773  0.4103
 4348TP3      O13055   3.613   5.793   5.002 -0.0766  0.3097  0.3865
 4348TP3     H113056   3.620   5.846   4.922 -2.9898 -2.0165 -1.6165
 4348TP3     H213057   3.704   5.779   5.030  0.9437  4.9329  0.2608
 4349TP3      O13058   3.953   0.778   5.453  0.6122  0.8856  0.2643
 4349TP3     H113059   4.047   0.790   5.470  0.3901  4.9865 -0.4272
 4349TP3     H213060   3.910   0.827   5.523 -0.9027  1.3444 -0.9352
 4350TP3      O13061   3.638   0.058   4.043  0.0973  0.0090 -0.0212
 4350TP3     H113062   3.574   0.079   4.111  1.5197  0.1195  1.3251
 4350TP3     H213063   3.650  -0.037   4.049  0.1392  0.0024 -0.1959
 4351TP3      O13064   1.634   0.034   5.452 -0.2418 -0.5245  0.1231
 4351TP3     H113065   1.636   0.079   5.536  1.9302 -0.6559  0.1908
 4351TP3     H213066   1.697   0.081   5.397  0.0533 -1.8002 -0.6812
 4352TP3      O13067   3.117   0.493   5.352 -0.7220 -0.6525 -0.7296
 4352TP3     H113068   3.061   0.527   5.421 -0.2453  2.0304 -1.5400
 4352TP3     H213069   3.120   0.563   5.287  0.8792 -2.0588 -2.2765
 4353TP3      O13070   3.038   0.507   3.587  0.0097  0.2068 -0.2468
 4353TP3     H113071   3.131   0.525   3.572 -0.2937  1.5364 -0.6865
 4353TP3     H213072   3.009   0.465   3.507  0.1328  0.2151 -0.2963
 4354TP3      O13073   1.983   5.910   5.358 -0.2999  0.0403  0.2796
 4354TP3     H113074   1.900   5.958   5.356  0.3873  1.2670 -1.8905
 4354TP3     H213075   2.048   5.975   5.333  0.6983 -1.9719 -2.7973
 4355TP3      O13076   1.582   0.827   5.758  0.4036 -0.8895 -0.7740
 4355TP3     H113077   1.651   0.817   5.824 -1.1979  1.0242  1.3754
 4355TP3     H213078   1.507   0.781   5.795 -1.5836  3.0146  0.6522
 4356TP3      O13079   3.625   5.779   4.090  0.0096  0.4220 -0.1835
 4356TP3     H113080   3.671   5.732   4.159  0.0630 -0.8334 -1.0226
 4356TP3     H213081   3.583   5.710   4.038 -3.5713  1.4814  0.9999
 4357TP3      O13082   2.640   4.823   0.115  0.2975 -0.0558  0.6987
 4357TP3     H113083   2.624   4.857   0.204  0.2904 -0.9742  1.0584
 4357TP3     H213084   2.709   4.880   0.081  1.4238 -0.6424  1.8890
 4358TP3      O13085   3.009   0.302   4.298  0.2134  0.9071 -0.5739
 4358TP3     H113086   2.982   0.388   4.266 -1.2891  0.5523 -0.3476
 4358TP3     H213087   3.104   0.308   4.307  0.1338  2.5395 -0.5489
 4359TP3      O13088   1.993   5.274   5.314  0.5048  0.3462 -0.3837
 4359TP3     H113089   1.968   5.275   5.406  2.9161 -0.2042  0.3415
 4359TP3     H213090   2.070   5.330   5.309  0.5643  0.1757 -2.0299
 4360TP3      O13091   2.827   0.487   0.052  0.0837  0.7484 -0.5464
 4360TP3     H113092   2.921   0.480   0.034  0.5547  0.9943  1.5316
 4360TP3     H213093   2.802   0.398   0.079  0.2632  1.1568  1.0636
 4361TP3      O13094   2.119   5.220   2.882  0.0319  0.3942 -0.3938
 4361TP3     H113095   2.205   5.232   2.843 -0.4531 -0.2352 -1.7203
 4361TP3     H213096   2.084   5.308   2.892  0.1494  0.5724 -1.4520
 4362TP3      O13097   2.634   5.417   3.462  0.1962  0.2726  0.6026
 4362TP3     H113098   2.551   5.434   3.506  0.9818 -0.5447  2.5450
 4362TP3     H213099   2.641   5.486   3.396 -1.6451  0.8089  0.8966
 4363TP3      O13100   2.369   0.922   4.134  0.5813  0.1659 -0.0934
 4363TP3     H113101   2.310   0.881   4.197  2.5603 -0.2056  1.6041
 4363TP3     H213102   2.350   1.016   4.141  1.2079  0.1978  1.5788
 4364TP3      O13103   2.963   5.706   4.960  0.2898  0.2418  0.0347
 4364TP3     H113104   2.891   5.757   4.924 -0.4907  0.5248  1.9188
 4364TP3     H213105   2.948   5.617   4.928 -0.2056  0.5309 -0.5517
 4365TP3      O13106   3.215   5.530   5.140 -0.1252 -0.0190 -0.5125
 4365TP3     H113107   3.193   5.484   5.059  1.4335  1.5897 -1.9459
 4365TP3     H213108   3.292   5.485   5.174  0.1860  0.2864 -0.8102
 4366TP3      O13109   1.982   5.923   4.120  0.0306  0.2465 -0.2892
 4366TP3     H113110   2.043   5.879   4.061  0.4605  0.9756 -0.3915
 4366TP3     H213111   2.020   6.009   4.135 -1.6172  1.2045 -1.3673
 4367TP3      O13112   2.051   4.743   5.170  0.4229  0.3546 -0.4814
 4367TP3     H113113   2.072   4.836   5.176  1.5295  0.0751  0.2646
 4367TP3     H213114   2.009   4.734   5.084  0.5550  1.4870 -0.6900
 4368TP3      O13115   1.941   5.465   4.716  0.1578 -0.3627 -0.0533
 4368TP3     H113116   1.863   5.449   4.662 -0.1321  0.4941  0.0964
 4368TP3     H213117   1.905   5.486   4.803  0.5034  1.3129 -0.3034
 4369TP3      O13118   2.472   5.628   5.650 -0.1349 -0.2654  0.0526
 4369TP3     H113119   2.481   5.543   5.694  0.3068 -0.5978 -0.6549
 4369TP3     H213120   2.524   5.619   5.571 -2.8238 -0.5518 -1.8107
 4370TP3      O13121   2.362   5.174   4.513 -0.0408 -0.0587  0.2633
 4370TP3     H113122   2.312   5.223   4.578 -0.6745 -1.5086  0.9028
 4370TP3     H213123   2.438   5.141   4.561  0.5448  0.5362 -0.2373
 4371TP3      O13124   2.130   5.671   5.225  0.4073 -0.1990  0.2766
 4371TP3     H113125   2.053   5.724   5.245  1.1237  0.3964  1.6277
 4371TP3     H213126   2.179   5.669   5.307  1.4528 -1.2010 -0.3455
 4372TP3      O13127   1.933   5.964   4.697 -0.1788  0.6484 -0.2741
 4372TP3     H113128   1.846   5.958   4.657  0.5978  0.3925 -2.0189
 4372TP3     H213129   1.990   5.991   4.625  1.2563  0.4523  0.7564
 4373TP3      O13130   3.453   0.049   4.240 -0.2670 -0.4549  0.4308
 4373TP3     H113131   3.380   0.110   4.252  0.5551  0.7595 -0.5785
 4373TP3     H213132   3.423  -0.032   4.282 -1.1790  0.7649  2.2847
 4374TP3      O13133   2.660   5.459   4.154  0.4591 -0.1839 -0.3383
 4374TP3     H113134   2.729   5.394   4.139 -0.3232 -0.9807 -0.5743
 4374TP3     H213135   2.649   5.502   4.069  0.3196 -0.3997 -0.4285
 4375TP3      O13136   2.256   5.769   5.498  0.6287  0.6901  0.0714
 4375TP3     H113137   2.324   5.707   5.524 -1.1512 -1.0020  0.9859
 4375TP3     H213138   2.221   5.803   5.580 -2.1308 -1.3967 -0.1006
 4376TP3      O13139   2.979   0.129   5.414  0.6615  0.0543 -0.0784
 4376TP3     H113140   2.928   0.199   5.374 -1.4308 -0.8886  0.8039
 4376TP3     H213141   2.921   0.093   5.481  2.0239 -1.9385  0.0994
 4377TP3      O13142   2.657   5.857   4.370  0.2485 -0.0241 -0.3950
 4377TP3     H113143   2.729   5.825   4.314  0.1193 -3.5704  1.2194
 4377TP3     H213144   2.578   5.832   4.323  0.0338  1.3400 -0.8132
 4378TP3      O13145   3.884   0.144   3.885 -0.0555 -0.6815  0.2261
 4378TP3     H113146   3.825   0.105   3.950  0.7562 -0.4378  1.1462
 4378TP3     H213147   3.910   0.070   3.830 -0.2575 -1.0289  0.5876
 4379TP3      O13148   3.976   5.344   4.786 -0.3074  0.3153  0.1417
 4379TP3     H113149   3.932   5.336   4.702 -0.0493 -0.5606  0.0729
 4379TP3     H213150   4.059   5.297   4.774 -0.7632 -0.8237  1.2176
 4380TP3      O13151   3.276   0.534   4.984 -0.3856 -0.1672  0.0269
 4380TP3     H113152   3.252   0.586   5.060  1.3688  0.6544  0.0808
 4380TP3     H213153   3.256   0.444   5.009  3.8281 -0.5280  3.2745
 4381TP3      O13154   1.368   5.352   4.308  0.7315 -0.3306 -0.5250
 4381TP3     H113155   1.327   5.337   4.394  2.5889 -1.1993  0.2604
 4381TP3     H213156   1.296   5.382   4.253 -0.4468  0.6924  1.4416
 4382TP3      O13157   2.150   0.149   4.209 -0.5337  0.1528 -0.0217
 4382TP3     H113158   2.215   0.100   4.259 -1.0852 -1.0615 -0.4572
 4382TP3     H213159   2.090   0.184   4.275  0.1745  0.7282  0.3300
 4383TP3      O13160   3.299   0.287   4.267 -0.3715 -0.1439  0.2673
 4383TP3     H113161   3.354   0.312   4.341 -0.9199  2.1749 -0.0028
 4383TP3     H213162   3.331   0.341   4.195 -1.5891 -0.3439 -0.4423
 4384TP3      O13163   4.440   5.730   0.650  0.1811 -0.0676 -0.0077
 4384TP3     H113164   4.376   5.694   0.711  0.5285  0.9881  1.0339
 4384TP3     H213165   4.475   5.806   0.696  1.1022  0.2378 -1.1803
 4385TP3      O13166   3.117   5.813   0.069  0.3793 -0.4783 -0.4919
 4385TP3     H113167   3.156   5.772  -0.008  1.0904 -1.8227  0.5514
 4385TP3     H213168   3.191   5.855   0.114  0.5088 -2.0761  0.8948
 4386TP3      O13169   2.849   5.191   4.759 -0.3921  0.5770  0.0084
 4386TP3     H113170   2.875   5.161   4.671  1.5649  0.4350  0.5706
 4386TP3     H213171   2.770   5.242   4.745 -2.3840 -2.5675 -1.3578
 4387TP3      O13172   2.349   5.417   4.334  0.4175 -0.1926 -0.2918
 4387TP3     H113173   2.351   5.366   4.415 -0.3288  0.0287 -0.1285
 4387TP3     H213174   2.409   5.490   4.350  0.9686 -0.6453 -0.2793
 4388TP3      O13175   3.355   0.071   4.548  0.0504 -0.1098 -0.0486
 4388TP3     H113176   3.419   0.131   4.509  1.2876 -1.2262  0.2014
 4388TP3     H213177   3.388   0.054   4.636 -2.1465  1.5422  1.2148
 4389TP3      O13178   3.487   5.115   3.714  0.1694 -0.3924  0.0808
 4389TP3     H113179   3.454   5.135   3.801 -0.7976 -0.2914 -0.2948
 4389TP3     H213180   3.411   5.081   3.666  1.0625 -2.1476 -0.2062
 4390TP3      O13181   3.371   5.849   4.422  0.3945  0.8202 -0.3660
 4390TP3     H113182   3.287   5.850   4.377  0.4594 -1.2285 -0.6501
 4390TP3     H213183   3.372   5.929   4.474 -1.6385  0.9679 -0.4887
 4391TP3      O13184   3.282   5.610   5.549 -0.3153  0.3481  0.0333
 4391TP3     H113185   3.206   5.580   5.499 -0.2591  0.5094 -0.1487
 4391TP3     H213186   3.338   5.652   5.485  0.2984 -0.4570  0.0201
 4392TP3      O13187   3.243   0.155   5.803 -0.2005  0.7044  0.1897
 4392TP3     H113188   3.274   0.223   5.742  1.1742  0.1622  0.2439
 4392TP3     H213189   3.172   0.111   5.757  0.9600  0.1627 -1.1285
 4393TP3      O13190   2.074   0.109   0.415  0.6291  0.0850 -0.2291
 4393TP3     H113191   2.052   0.202   0.415  1.6135  0.3428 -1.2713
 4393TP3     H213192   2.152   0.103   0.471 -0.0381 -0.2918  0.6853
 4394TP3      O13193   1.799   0.668   0.590 -0.4510  0.1848 -0.3451
 4394TP3     H113194   1.771   0.595   0.535  1.0205  0.4937 -1.5575
 4394TP3     H213195   1.824   0.628   0.673 -2.0878 -0.3639 -0.0801
 4395TP3      O13196   2.646   5.607   5.412 -0.3224  0.0816  0.0405
 4395TP3     H113197   2.659   5.515   5.436  1.7035  0.2178 -0.3743
 4395TP3     H213198   2.711   5.623   5.343 -2.2673  1.1903 -1.6437
 4396TP3      O13199   2.115   5.008   5.822  0.6004  0.0436 -0.1543
 4396TP3     H113200   2.154   5.074   5.765 -0.2027  0.8111  0.1550
 4396TP3     H213201   2.087   5.057   5.900 -2.3519 -0.1259 -0.9855
 4397TP3      O13202   2.290   5.257   5.877  0.0226 -0.0353 -0.1699
 4397TP3     H113203   2.316   5.341   5.915  1.3127 -0.6540  0.3846
 4397TP3     H213204   2.269   5.202   5.953  0.7518 -0.6933 -0.4279
 4398TP3      O13205   2.242   5.579   0.266 -0.3891  0.7649  0.1901
 4398TP3     H113206   2.225   5.492   0.303  0.0749  0.5125 -0.1752
 4398TP3     H213207   2.155   5.614   0.248 -0.7193  1.5911  3.0110
 4399TP3      O13208   3.151   0.856   5.912 -0.3037 -0.2129 -0.6296
 4399TP3     H113209   3.118   0.810   5.989  0.2558 -1.2575 -1.0091
 4399TP3     H213210   3.084   0.924   5.895 -1.9715 -1.8715 -1.0169
 4400TP3      O13211   2.653   0.731   1.802 -0.6233  0.1596  0.5626
 4400TP3     H113212   2.607   0.670   1.860 -0.1753  0.5722  1.3577
 4400TP3     H213213   2.743   0.733   1.835 -0.3277  0.2895 -0.2383
 4401TP3      O13214   3.695   4.985   0.489 -0.2747 -0.3808 -0.2854
 4401TP3     H113215   3.606   4.999   0.456 -0.3670  0.3515  0.2266
 4401TP3     H213216   3.737   5.071   0.482 -0.2713 -0.2026  1.3498
 4402TP3      O13217   1.209   5.491   5.444  0.5114  0.6586  0.1478
 4402TP3     H113218   1.176   5.578   5.424 -1.1938  0.3163  1.1932
 4402TP3     H213219   1.215   5.447   5.360  1.8850  1.9126 -0.4494
 4403TP3      O13220   1.968   5.553   0.152  0.0440  0.0458  0.0354
 4403TP3     H113221   1.964   5.550   0.057  1.7185 -1.4010 -0.0493
 4403TP3     H213222   1.950   5.644   0.175  1.5847  0.8711 -1.8006
 4404TP3      O13223   2.624   0.259   5.736 -0.2508 -0.0503  0.2869
 4404TP3     H113224   2.573   0.181   5.762 -1.3887  0.3769 -0.5890
 4404TP3     H213225   2.583   0.289   5.655 -0.3178  1.9159  1.0011
 4405TP3      O13226   4.762   0.130   5.425  0.4023 -0.2669  0.5942
 4405TP3     H113227   4.793   0.214   5.459 -0.4013 -0.0131  0.7139
 4405TP3     H213228   4.794   0.128   5.335  0.8682 -0.0722  0.7468
 4406TP3      O13229   3.295   5.041   1.523  0.1362 -0.2287  0.7087
 4406TP3     H113230   3.389   5.031   1.539  0.4660 -0.0990 -0.9160
 4406TP3     H213231   3.257   4.957   1.545  0.9093 -0.8393 -0.1980
 4407TP3      O13232   4.095   5.714   0.606 -0.5620  0.1947  0.1914
 4407TP3     H113233   4.078   5.629   0.565 -0.6503 -0.0758  0.7869
 4407TP3     H213234   4.154   5.694   0.679  1.7167  0.9873 -1.3140
 4408TP3      O13235   4.322   1.296   1.814  0.1535  0.2461  0.0886
 4408TP3     H113236   4.346   1.388   1.821  0.4539  0.2177 -0.4498
 4408TP3     H213237   4.392   1.258   1.760 -0.9690  0.1033 -1.3315
 4409TP3      O13238   5.617   0.490   0.427  0.5962  0.0594 -0.1664
 4409TP3     H113239   5.711   0.503   0.421  0.5118  0.9516  0.2822
 4409TP3     H213240   5.599   0.489   0.521  0.1476 -0.0449 -0.2481
 4410TP3      O13241   5.216   1.890   0.565 -0.2815 -0.1261  0.2560
 4410TP3     H113242   5.206   1.890   0.660 -0.0179 -0.7067  0.2885
 4410TP3     H213243   5.243   1.979   0.544  3.7597 -0.9044  1.1943
 4411TP3      O13244   0.025   0.607   0.173  0.1555  0.5110 -0.5526
 4411TP3     H113245   0.060   0.681   0.124  1.0864 -0.6299 -1.6548
 4411TP3     H213246   0.073   0.531   0.141 -1.8009 -0.8130 -0.5295
 4412TP3      O13247   3.679   0.787   1.828 -0.8280 -0.7431  0.0892
 4412TP3     H113248   3.708   0.744   1.748 -1.4036 -0.0947 -0.4877
 4412TP3     H213249   3.753   0.841   1.856 -1.2306  0.4723 -1.0626
 4413TP3      O13250   4.787   5.909   1.462 -0.0355 -0.2849 -0.1373
 4413TP3     H113251   4.771   5.967   1.387  0.5221 -0.4164 -0.3548
 4413TP3     H213252   4.707   5.856   1.467  0.0687 -0.5276 -0.8618
 4414TP3      O13253   3.647   0.864   0.134 -0.0620  0.5188 -0.0821
 4414TP3     H113254   3.655   0.903   0.221 -0.4195 -2.1909  1.2733
 4414TP3     H213255   3.601   0.781   0.149  0.6581 -0.4549 -2.7240
 4415TP3      O13256   4.475   1.194   1.580 -0.3748  0.3320 -0.6326
 4415TP3     H113257   4.443   1.227   1.496 -3.2883  0.2915  0.3597
 4415TP3     H213258   4.568   1.219   1.581 -1.3224  4.9728 -1.7129
 4416TP3      O13259   4.032   1.558   0.894 -0.0797 -0.1844  0.3757
 4416TP3     H113260   3.953   1.562   0.948  0.8551  0.5734  1.7507
 4416TP3     H213261   4.033   1.470   0.858 -1.8169 -0.0372 -0.0857
 4417TP3      O13262   5.679   2.287   1.044  0.3955  0.3988 -0.4348
 4417TP3     H113263   5.631   2.338   0.979 -0.2635  0.2540 -0.0663
 4417TP3     H213264   5.628   2.296   1.124 -0.3192 -1.6875 -0.6096
 4418TP3      O13265   4.231   0.099   1.639  0.1523  0.6753  0.2358
 4418TP3     H113266   4.152   0.142   1.671 -0.1190 -0.2666  0.8845
 4418TP3     H213267   4.237   0.019   1.692  0.8811  0.1494 -0.6272
 4419TP3      O13268   5.457   0.169   0.629  1.0310  0.1051 -0.0492
 4419TP3     H113269   5.431   0.170   0.721  1.6110  0.2620  0.1107
 4419TP3     H213270   5.420   0.250   0.593 -0.0969 -0.4610 -0.2100
 4420TP3      O13271   3.489   2.811   5.844  0.0138 -0.6854 -0.2774
 4420TP3     H113272   3.474   2.842   5.755 -1.8728 -0.3067  0.1208
 4420TP3     H213273   3.490   2.715   5.836  1.8006 -0.6522 -0.9350
 4421TP3      O13274   4.510   1.949   1.568  0.2167 -0.4938  0.6238
 4421TP3     H113275   4.525   2.007   1.642 -0.1795  1.0498 -0.4704
 4421TP3     H213276   4.463   2.002   1.504 -1.4160 -2.4099  0.1180
 4422TP3      O13277   3.515   1.394   5.909  0.2854  0.0559  0.1166
 4422TP3     H113278   3.488   1.415   5.819 -0.5485  1.0739  0.5760
 4422TP3     H213279   3.467   1.314   5.930  1.5252 -0.9749 -0.7814
 4423TP3      O13280   3.991   0.988   0.184  0.3695  0.0368  0.2531
 4423TP3     H113281   3.958   0.968   0.096  0.7898  2.0888 -0.4022
 4423TP3     H213282   3.971   1.080   0.198 -1.0063 -0.5418  2.9348
 4424TP3      O13283   4.463   1.598   0.909 -0.0148 -0.8680  0.4213
 4424TP3     H113284   4.425   1.679   0.873 -0.6379 -1.9819 -1.5915
 4424TP3     H213285   4.471   1.615   1.003 -0.2446  1.4745  0.0697
 4425TP3      O13286   4.489   0.459   4.879 -0.6568 -0.4735 -0.1826
 4425TP3     H113287   4.495   0.399   4.804 -0.5394 -1.4463  0.5867
 4425TP3     H213288   4.562   0.434   4.935 -1.2263 -0.3029  0.6412
 4426TP3      O13289   0.047   5.678   2.354  0.3248  0.7385  0.2105
 4426TP3     H113290  -0.036   5.661   2.398  0.2711 -2.1331 -0.8194
 4426TP3     H213291   0.106   5.611   2.388  1.8864  1.9317 -0.0313
 4427TP3      O13292   4.793   0.461   5.759 -0.0284 -0.1515 -0.7365
 4427TP3     H113293   4.713   0.494   5.717  1.4744  1.3832 -2.5517
 4427TP3     H213294   4.825   0.535   5.811  0.9456 -0.2734 -1.1414
 4428TP3      O13295   0.460   0.387   5.282  0.1410 -0.2865  0.6710
 4428TP3     H113296   0.429   0.342   5.204  2.1945 -1.8364  0.6573
 4428TP3     H213297   0.382   0.398   5.337 -0.8248 -1.9051 -0.3041
 4429TP3      O13298   3.826   2.014   5.686 -0.0216 -0.5490  0.3116
 4429TP3     H113299   3.855   2.076   5.752  1.3432  0.1876 -0.9462
 4429TP3     H213300   3.784   2.068   5.619 -0.2385 -1.1597 -0.0546
 4430TP3      O13301   0.172   0.403   0.614 -0.1215 -0.9333 -0.4734
 4430TP3     H113302   0.103   0.339   0.598 -0.0475 -0.7568 -1.5660
 4430TP3     H213303   0.137   0.485   0.579 -0.0669 -0.4467  0.5839
 4431TP3      O13304   4.343   0.825   0.432  0.4087 -0.0095 -0.2254
 4431TP3     H113305   4.321   0.892   0.496 -0.6722  0.4306 -1.0251
 4431TP3     H213306   4.270   0.826   0.370  0.9613 -1.0856 -0.9288
 4432TP3      O13307   3.556   1.419   1.329  0.0808  0.2390 -0.2354
 4432TP3     H113308   3.474   1.382   1.360  0.0647  0.5366  0.0838
 4432TP3     H213309   3.582   1.362   1.257 -0.5621  0.3249 -0.5419
 4433TP3      O13310   4.531   0.649   1.888  0.0717 -0.0092 -0.0993
 4433TP3     H113311   4.594   0.670   1.957 -0.0683 -3.6492  1.3541
 4433TP3     H213312   4.583   0.607   1.820 -0.3258  0.1874 -0.5313
 4434TP3      O13313   4.743   1.322   1.177  0.1388 -0.1038  0.4824
 4434TP3     H113314   4.772   1.231   1.172 -0.4114 -0.3240  1.0644
 4434TP3     H213315   4.678   1.330   1.107 -0.7105 -0.5211  1.1925
 4435TP3      O13316   4.474   0.711   0.217  0.0735  0.6567 -0.5391
 4435TP3     H113317   4.423   0.649   0.164 -0.9072  0.9977 -0.0330
 4435TP3     H213318   4.432   0.708   0.303  2.1682 -0.5397  0.5353
 4436TP3      O13319   4.379   5.823   1.077 -0.1381  0.1148  0.2540
 4436TP3     H113320   4.472   5.806   1.092 -0.4959 -1.6542  0.7172
 4436TP3     H213321   4.375   5.915   1.053  1.6678  0.3664  0.7751
 4437TP3      O13322   4.809   1.299   0.298  0.4521  0.3163 -0.0285
 4437TP3     H113323   4.760   1.302   0.216  1.3005  3.4523 -0.5301
 4437TP3     H213324   4.860   1.218   0.292  0.9241  0.7316 -2.8865
 4438TP3      O13325   4.753   1.679   1.740 -0.7312 -0.7645  0.2191
 4438TP3     H113326   4.828   1.621   1.726 -1.1502 -0.8371 -2.1084
 4438TP3     H213327   4.739   1.722   1.656 -2.2735  0.5258  1.0643
 4439TP3      O13328   4.504   0.254   2.491 -1.1846  0.5959 -0.0643
 4439TP3     H113329   4.452   0.183   2.529 -1.1631  1.1765  1.0646
 4439TP3     H213330   4.540   0.301   2.566 -1.6482  2.1475 -0.7901
 4440TP3      O13331   5.275   1.582   0.536 -0.3191 -0.1235  0.2311
 4440TP3     H113332   5.367   1.577   0.512  0.0393 -0.4753  1.5849
 4440TP3     H213333   5.263   1.673   0.564 -0.0089 -0.4273  1.4009
 4441TP3      O13334   0.354   1.327   0.512 -0.3938  0.4276 -0.3625
 4441TP3     H113335   0.284   1.370   0.462 -0.1799  2.6370  1.0901
 4441TP3     H213336   0.423   1.313   0.447 -1.2529  0.4531 -1.3161
 4442TP3      O13337   4.756   0.403   5.433 -0.2028 -0.2653 -0.9064
 4442TP3     H113338   4.743   0.437   5.521  0.5942 -2.3866  0.0931
 4442TP3     H213339   4.837   0.444   5.403  0.0680 -0.2980 -0.2329
 4443TP3      O13340   4.737   0.408   0.280  0.0257 -0.0990 -0.1288
 4443TP3     H113341   4.657   0.357   0.294 -0.0758 -0.2978 -1.3797
 4443TP3     H213342   4.801   0.345   0.249  0.2185  0.3387 -0.6283
 4444TP3      O13343   0.171   1.388   0.279  0.8347 -0.2852 -0.2954
 4444TP3     H113344   0.141   1.477   0.301 -0.8271 -0.5673 -1.2736
 4444TP3     H213345   0.181   1.390   0.184  2.0964 -0.7932 -0.1909
 4445TP3      O13346   3.749   1.048   2.099  0.3585  0.4293 -0.9959
 4445TP3     H113347   3.722   1.139   2.085 -2.1993 -0.1642 -0.5747
 4445TP3     H213348   3.795   1.049   2.183 -0.8283  1.1782 -0.3161
 4446TP3      O13349   4.089   1.419   2.497 -0.4955  0.5618  0.2759
 4446TP3     H113350   4.120   1.331   2.479 -1.8644  0.3301 -1.2643
 4446TP3     H213351   4.080   1.459   2.410  0.9144  2.5422  0.9588
 4447TP3      O13352   4.378   1.278   1.328  0.5433  0.0736 -0.3700
 4447TP3     H113353   4.340   1.289   1.241  2.2879  0.6704 -1.1052
 4447TP3     H213354   4.329   1.338   1.384 -1.3152 -1.0941 -0.6686
 4448TP3      O13355   4.803   0.063   1.083  0.3464  0.3308  0.2859
 4448TP3     H113356   4.796   0.125   1.011 -2.3289 -0.2265 -0.0299
 4448TP3     H213357   4.812   0.117   1.162 -0.0560  1.0364 -0.1504
 4449TP3      O13358   4.280   0.699   0.790 -0.9167  0.3395  0.1228
 4449TP3     H113359   4.362   0.746   0.772 -0.1580 -1.3327 -1.0924
 4449TP3     H213360   4.303   0.636   0.858 -0.8439 -0.9364 -1.0473
 4450TP3      O13361   2.549   0.722   0.868  0.0701 -0.0856 -0.0602
 4450TP3     H113362   2.507   0.692   0.788  0.7759 -0.6618 -0.2171
 4450TP3     H213363   2.536   0.817   0.868  0.4455 -0.0284 -1.0811
 4451TP3      O13364   3.623   2.783   1.695  0.3233 -0.1192 -0.4758
 4451TP3     H113365   3.538   2.827   1.687 -0.2960 -0.0384  3.9298
 4451TP3     H213366   3.613   2.703   1.644 -2.8697 -0.5818  0.6105
 4452TP3      O13367   3.544   5.819   0.529  0.0665  0.2042 -0.1858
 4452TP3     H113368   3.610   5.846   0.465 -2.1915 -0.0189 -2.8345
 4452TP3     H213369   3.492   5.898   0.544 -0.0067  0.0039  0.6229
 4453TP3      O13370   5.695   1.418   1.184  0.4523 -0.1210  0.0384
 4453TP3     H113371   5.766   1.361   1.155  0.6754 -0.4348  1.1540
 4453TP3     H213372   5.665   1.378   1.266  0.5302  1.2861  0.7758
 4454TP3      O13373   5.675   1.286   0.111  0.1672 -0.6360 -0.0560
 4454TP3     H113374   5.763   1.296   0.147  0.1081 -0.9954  0.1989
 4454TP3     H213375   5.688   1.229   0.034  0.2207 -0.3063 -0.2916
 4455TP3      O13376   4.388   0.764   1.072 -0.4269 -0.1307  0.1039
 4455TP3     H113377   4.470   0.758   1.120 -0.3288 -0.7198 -0.1238
 4455TP3     H213378   4.388   0.852   1.034 -0.4767  0.3173  1.1182
 4456TP3      O13379   5.333   1.733   0.190 -0.2027  0.4896  0.0093
 4456TP3     H113380   5.241   1.731   0.215  0.0385  0.0778  0.8982
 4456TP3     H213381   5.332   1.741   0.095 -1.1468  1.4246  0.0865
 4457TP3      O13382   4.513   1.295   5.702 -0.4115  0.5366  0.3922
 4457TP3     H113383   4.449   1.281   5.631  0.8803 -0.6980 -0.5968
 4457TP3     H213384   4.472   1.257   5.779 -1.2884  0.6648 -0.0000
 4458TP3      O13385   5.465   0.943   0.772 -0.0744  0.7533  0.3236
 4458TP3     H113386   5.422   1.023   0.802 -0.3401  0.2653  1.2954
 4458TP3     H213387   5.554   0.949   0.808  0.6909  1.6986 -1.5730
 4459TP3      O13388   5.321   2.368   1.947  0.6187  0.1833 -0.4670
 4459TP3     H113389   5.274   2.342   1.868 -1.9411  0.6500  0.8056
 4459TP3     H213390   5.347   2.285   1.988  0.1065 -0.1175 -0.7415
 4460TP3      O13391   4.601   0.578   0.801  0.0556  0.5042  0.1881
 4460TP3     H113392   4.690   0.574   0.834  1.4167  2.7491 -2.7870
 4460TP3     H213393   4.576   0.670   0.810 -1.6692  0.0808  0.1882
 4461TP3      O13394   4.920   1.878   0.840  0.3300 -0.1756  0.1241
 4461TP3     H113395   4.845   1.916   0.794 -0.5837 -0.8658  0.9934
 4461TP3     H213396   4.973   1.953   0.867 -0.4273  0.3671  0.1302
 4462TP3      O13397   4.806   1.624   2.042 -0.0798  0.3116 -0.3461
 4462TP3     H113398   4.760   1.680   2.104  0.2409 -0.5373  0.6972
 4462TP3     H213399   4.781   1.657   1.956 -2.0179  0.3496  0.1867
 4463TP3      O13400   4.785   1.947   0.413  0.2353  0.5075 -0.5580
 4463TP3     H113401   4.822   2.030   0.441  1.5712 -0.7526  1.6636
 4463TP3     H213402   4.692   1.953   0.437  0.0088  1.7701 -1.5837
 4464TP3      O13403   3.137   0.500   1.745 -0.2112  0.1383  0.0659
 4464TP3     H113404   3.136   0.589   1.711 -0.5304  0.6973  1.4702
 4464TP3     H213405   3.209   0.499   1.808  0.3719 -0.8631 -0.5892
 4465TP3      O13406   0.984   2.455   5.711  0.4829 -0.0172  0.2525
 4465TP3     H113407   1.058   2.432   5.655  0.4189  0.0544  0.1380
 4465TP3     H213408   0.913   2.396   5.684 -0.3957  1.7873 -1.6081
 4466TP3      O13409   3.977   2.650   0.163  0.0519  0.6543 -0.1230
 4466TP3     H113410   4.024   2.722   0.121 -1.5901  1.6617 -0.3231
 4466TP3     H213411   3.959   2.682   0.252 -2.1456  1.2508 -0.7226
 4467TP3      O13412   4.490   0.330   5.731 -0.2397  0.2208 -0.1348
 4467TP3     H113413   4.508   0.304   5.641 -1.1614 -1.2599  0.0674
 4467TP3     H213414   4.457   0.419   5.725  1.4955  0.8372 -1.0472
 4468TP3      O13415   3.793   1.740   0.835 -0.1218 -0.4261 -0.3956
 4468TP3     H113416   3.712   1.783   0.808  0.0977 -0.8477 -1.7638
 4468TP3     H213417   3.802   1.665   0.776  0.4423 -1.3226  0.7851
 4469TP3      O13418   4.514   1.867   0.506 -0.2425 -0.1683  0.6067
 4469TP3     H113419   4.509   1.875   0.411  1.5856 -0.0163  0.4894
 4469TP3     H213420   4.534   1.955   0.537  3.9426 -0.9085  0.6503
 4470TP3      O13421   4.177   1.133   5.594  0.4875  0.1077  0.5499
 4470TP3     H113422   4.083   1.143   5.579  0.5518  0.7724  0.5552
 4470TP3     H213423   4.213   1.110   5.509  0.6235  2.1639  0.0006
 4471TP3      O13424   5.640   0.459   1.800  0.6700  0.0670  0.2376
 4471TP3     H113425   5.700   0.509   1.854  1.1938 -0.5006  0.1943
 4471TP3     H213426   5.696   0.397   1.753  0.1495  0.1157 -0.4642
 4472TP3      O13427   4.035   5.468   0.474 -0.1248  0.4767 -0.5399
 4472TP3     H113428   3.944   5.480   0.501  0.2171  1.2582  0.3188
 4472TP3     H213429   4.031   5.465   0.378 -0.8756  2.2519 -0.6008
 4473TP3      O13430   5.237   0.744   1.824 -0.1921 -0.6673  0.3206
 4473TP3     H113431   5.252   0.835   1.798 -0.5739 -0.4591  0.8180
 4473TP3     H213432   5.254   0.693   1.745 -1.3352 -0.0505 -0.3461
 4474TP3      O13433   4.271   1.867   1.370  0.2964 -0.2191 -0.3200
 4474TP3     H113434   4.203   1.900   1.311  0.3837 -0.3175 -0.4759
 4474TP3     H213435   4.223   1.831   1.444  0.1784 -0.2858 -0.4287
 4475TP3      O13436   5.544   0.541   1.073  0.1584 -0.0796 -0.1653
 4475TP3     H113437   5.470   0.596   1.050 -0.4773 -1.3211 -1.2524
 4475TP3     H213438   5.510   0.480   1.138  0.8303  0.7238  0.9701
 4476TP3      O13439   4.292   1.392   0.836  1.1597  0.1681  0.3554
 4476TP3     H113440   4.283   1.439   0.753 -2.7074  1.8587  1.5146
 4476TP3     H213441   4.344   1.451   0.891  2.5232 -0.3222 -0.3580
 4477TP3      O13442   3.603   0.269   1.108  0.3418  0.5507  0.0122
 4477TP3     H113443   3.672   0.203   1.102  0.6778  0.9320 -0.3601
 4477TP3     H213444   3.644   0.343   1.153 -0.2860  0.1851  1.2315
 4478TP3      O13445   3.552   1.551   0.128  0.1220 -0.6232  0.2345
 4478TP3     H113446   3.463   1.563   0.161  0.2586  1.9546 -0.1084
 4478TP3     H213447   3.541   1.500   0.048 -1.3161  1.2469 -0.8377
 4479TP3      O13448   4.817   1.790   0.150 -0.1178  0.4386  0.0724
 4479TP3     H113449   4.766   1.819   0.225  1.0194 -0.7691  1.3781
 4479TP3     H213450   4.901   1.833   0.159 -0.0083  0.3860 -0.5957
 4480TP3      O13451   4.500   0.285   0.281  0.6724 -0.4479 -0.6278
 4480TP3     H113452   4.417   0.318   0.315  1.0685  0.1685 -0.2390
 4480TP3     H213453   4.494   0.300   0.186 -0.7146 -2.8134 -0.9845
 4481TP3      O13454   4.228   0.584   0.534  0.7408  0.2043  0.1251
 4481TP3     H113455   4.269   0.669   0.515 -1.3825  1.0945 -0.7368
 4481TP3     H213456   4.201   0.590   0.625 -0.0178  0.7377 -0.1294
 4482TP3      O13457   4.653   0.646   1.216  0.4749 -0.4551  0.6005
 4482TP3     H113458   4.616   0.559   1.231 -1.9075  0.1486 -1.2141
 4482TP3     H213459   4.646   0.690   1.301 -1.1039 -1.0820  0.8255
 4483TP3      O13460   5.914   1.234   1.114  0.4523 -0.1067 -0.0383
 4483TP3     H113461   5.883   1.145   1.133  1.6946 -0.4654  0.4330
 4483TP3     H213462   6.009   1.228   1.121  0.6572  0.9406 -1.4597
 4484TP3      O13463   3.785   1.533   1.100 -0.0703  1.2130 -0.1034
 4484TP3     H113464   3.752   1.563   1.015 -0.2510  0.2950 -0.3733
 4484TP3     H213465   3.742   1.449   1.113  1.5181  0.3662 -0.0720
 4485TP3      O13466   5.607   1.083   0.357 -0.4306 -0.0696 -0.4687
 4485TP3     H113467   5.546   1.142   0.401 -1.0051 -1.7366  1.0808
 4485TP3     H213468   5.665   1.142   0.307 -1.8619  1.6844 -0.1684
 4486TP3      O13469   4.591   0.982   5.584  0.4167 -0.5691 -0.1575
 4486TP3     H113470   4.685   0.982   5.603  0.0088 -1.3741  2.2440
 4486TP3     H213471   4.574   1.068   5.546  1.6121  0.9691  2.5325
 4487TP3      O13472   3.657   1.003   0.384 -0.0896 -0.3502 -0.2417
 4487TP3     H113473   3.589   1.004   0.451  1.2001 -3.3127  1.3035
 4487TP3     H213474   3.736   1.032   0.429  0.5380 -1.1367 -0.8015
 4488TP3      O13475   3.781   5.708   1.315  0.8636  0.2760  0.0921
 4488TP3     H113476   3.852   5.704   1.250  0.6303  0.7108 -0.2021
 4488TP3     H213477   3.741   5.622   1.312 -0.1071  0.7363 -1.4717
 4489TP3      O13478   4.910   1.128   0.888  0.1709 -0.1255  0.1596
 4489TP3     H113479   4.908   1.218   0.856  2.3274  0.1173  0.6058
 4489TP3     H213480   4.944   1.077   0.814  1.3448 -0.1674  0.7083
 4490TP3      O13481   5.306   0.258   0.378 -0.6259  0.4026 -0.0170
 4490TP3     H113482   5.265   0.344   0.380 -1.2620  0.1171 -0.5142
 4490TP3     H213483   5.394   0.274   0.343 -0.8866  0.7920 -0.4968
 4491TP3      O13484   5.179   1.543   0.793  0.8780  0.2004 -0.0881
 4491TP3     H113485   5.187   1.634   0.823  0.3750  0.6857 -1.3306
 4491TP3     H213486   5.209   1.546   0.702 -1.1737 -0.4263 -0.8361
 4492TP3      O13487   5.905   0.718   0.810  0.2456 -0.4051 -0.3860
 4492TP3     H113488   5.995   0.719   0.841 -0.0619  2.2274  0.6526
 4492TP3     H213489   5.852   0.715   0.890 -0.5402  2.8640 -0.6418
 4493TP3      O13490   5.974   1.578   0.363 -0.5604  0.1986  0.0049
 4493TP3     H113491   5.902   1.527   0.401 -1.2578  0.4904 -0.8718
 4493TP3     H213492   5.939   1.609   0.280  0.6568  0.1913 -0.5336
 4494TP3      O13493   3.904   2.125   5.918 -1.1566  0.1684  0.2701
 4494TP3     H113494   3.971   2.191   5.930 -1.6189  0.2512  3.0121
 4494TP3     H213495   3.881   2.097   6.007 -4.2250 -0.3786 -0.5621
 4495TP3      O13496   0.401   0.700   0.449 -0.4634  0.0319  0.1804
 4495TP3     H113497   0.318   0.656   0.467  0.3555 -2.7848 -2.1115
 4495TP3     H213498   0.378   0.792   0.438 -3.2560 -0.6279 -0.1664
 4496TP3      O13499   4.767   0.679   0.262  0.0417 -1.5661 -0.2162
 4496TP3     H113500   4.773   0.583   0.262 -1.9296 -1.7473 -0.1085
 4496TP3     H213501   4.679   0.696   0.227 -0.0291  0.1750  0.7493
 4497TP3      O13502   3.043   1.196   0.263 -0.0026  0.2643 -0.4088
 4497TP3     H113503   3.075   1.240   0.185 -0.6038 -0.3051 -0.9840
 4497TP3     H213504   2.996   1.120   0.231  0.2723 -0.3255  0.5375
 4498TP3      O13505   5.411   1.265   1.392 -0.2495 -0.7840 -0.2131
 4498TP3     H113506   5.385   1.235   1.479 -1.7012 -1.3326 -0.8048
 4498TP3     H213507   5.345   1.329   1.367  2.6974  3.0745  0.9549
 4499TP3      O13508   4.970   1.535   1.816 -0.0685 -0.3649 -0.4954
 4499TP3     H113509   5.032   1.463   1.809 -0.6876 -1.0435  0.6490
 4499TP3     H213510   5.023   1.609   1.847  0.3235 -0.7199 -0.3009
 4500TP3      O13511   4.610   2.322   2.136 -0.5619 -0.2692 -0.1540
 4500TP3     H113512   4.682   2.368   2.091 -1.7891  0.4659 -1.4421
 4500TP3     H213513   4.585   2.252   2.076 -1.1454 -0.3042  0.1244
 4501TP3      O13514   4.712   2.072   1.965 -0.4576  0.2186  0.1725
 4501TP3     H113515   4.673   2.011   2.027 -0.8097  0.4813  0.2186
 4501TP3     H213516   4.778   2.119   2.015  0.9094 -1.1819 -0.2575
 4502TP3      O13517   5.316   1.664   1.220 -0.0233 -0.4965  0.4135
 4502TP3     H113518   5.406   1.682   1.194  0.4851 -0.8661  1.8260
 4502TP3     H213519   5.271   1.643   1.138  1.9393 -3.5374 -0.0235
 4503TP3      O13520   5.317   0.254   1.669  0.4156  0.3032  0.3696
 4503TP3     H113521   5.282   0.343   1.656  0.7730  0.1517 -2.0619
 4503TP3     H213522   5.398   0.252   1.618 -0.2754 -1.7952 -0.7732
 4504TP3      O13523   5.256   2.233   2.432 -0.1727  0.3832 -0.4037
 4504TP3     H113524   5.278   2.323   2.409 -0.5718  0.9869  1.3603
 4504TP3     H213525   5.268   2.230   2.527 -0.0323 -1.4767 -0.4602
 4505TP3      O13526   4.205   1.284   1.096  0.1937 -0.0561 -0.0405
 4505TP3     H113527   4.238   1.316   1.013 -3.0151  0.5130 -1.2302
 4505TP3     H213528   4.145   1.352   1.127 -2.1354 -2.1511  0.4202
 4506TP3      O13529   4.196   1.406   1.476 -0.1304  0.3092  1.0951
 4506TP3     H113530   4.157   1.325   1.442  0.3790 -0.2744  1.8651
 4506TP3     H213531   4.145   1.424   1.555  0.3225  0.2623  1.3959
 4507TP3      O13532   5.723   5.579   1.414  0.0619 -0.1117 -0.4528
 4507TP3     H113533   5.816   5.573   1.390  0.2170 -0.0547  0.1102
 4507TP3     H213534   5.679   5.605   1.333  0.8043  1.9153 -0.2698
 4508TP3      O13535   3.522   1.210   2.351  0.4928 -0.3216 -0.4213
 4508TP3     H113536   3.439   1.203   2.398 -0.4268 -0.7042 -2.0063
 4508TP3     H213537   3.589   1.189   2.416 -0.6770 -0.3427  0.8101
 4509TP3      O13538   3.795   1.198   0.542 -0.5446  0.1483 -0.7328
 4509TP3     H113539   3.791   1.293   0.539 -1.4746  0.2834  1.8809
 4509TP3     H213540   3.879   1.178   0.583 -1.1640 -0.0212  0.5153
 4510TP3      O13541   3.793   0.041   1.133  0.4310 -0.3759  0.1694
 4510TP3     H113542   3.881   0.059   1.167  0.3983 -1.7587  1.0921
 4510TP3     H213543   3.749  -0.005   1.205 -0.9488  0.0135 -0.3981
 4511TP3      O13544   4.359   2.244   5.654 -0.2091 -0.2791  0.0664
 4511TP3     H113545   4.302   2.179   5.614  0.2996 -0.8109  0.1921
 4511TP3     H213546   4.336   2.327   5.612 -1.1388 -0.4683  0.1923
 4512TP3      O13547   4.926   1.600   1.476  0.1691  0.2275 -0.7542
 4512TP3     H113548   4.971   1.520   1.504  1.0896  0.1136 -2.4218
 4512TP3     H213549   4.997   1.663   1.462 -0.5535  1.4105  0.6567
 4513TP3      O13550   5.037   0.686   0.578 -0.2460 -0.1136  0.4194
 4513TP3     H113551   5.010   0.598   0.549 -0.4660  0.1728 -0.2494
 4513TP3     H213552   5.038   0.738   0.498  0.2494  0.4057  0.7636
 4514TP3      O13553   4.315   1.317   0.232  0.5475  0.1670  0.1693
 4514TP3     H113554   4.330   1.223   0.241  1.2148  0.1535 -0.8563
 4514TP3     H213555   4.392   1.357   0.272 -0.2105  0.3208  1.5146
 4515TP3      O13556   4.438   0.266   1.696 -0.2994  0.0718 -0.1893
 4515TP3     H113557   4.364   0.207   1.712 -1.1309  1.4653  1.4446
 4515TP3     H213558   4.462   0.299   1.783  1.9469  0.0333 -0.7489
 4516TP3      O13559   4.858   0.810   1.646  0.3603 -0.6961  0.3894
 4516TP3     H113560   4.854   0.890   1.697  0.1278 -0.9848  0.8320
 4516TP3     H213561   4.951   0.785   1.645  0.5910  0.1211 -0.6187
 4517TP3      O13562   4.993   0.623   1.882 -0.0433  0.3033  0.4504
 4517TP3     H113563   5.072   0.677   1.879  0.5227 -0.5342 -0.4416
 4517TP3     H213564   5.026   0.533   1.875 -1.0951 -0.0560 -0.0501
 4518TP3      O13565   4.907   4.989   1.161  0.7362  0.0995 -0.0250
 4518TP3     H113566   4.859   4.937   1.096  0.3452 -0.0353  0.3661
 4518TP3     H213567   4.929   5.070   1.116 -1.5071  0.9608  0.3454
 4519TP3      O13568   3.961   0.551   0.671 -0.6191  0.2936  0.0180
 4519TP3     H113569   3.869   0.553   0.699 -0.9012 -0.5443 -0.8207
 4519TP3     H213570   4.008   0.518   0.748 -1.2760 -1.1475 -0.1689
 4520TP3      O13571   3.372   1.182   0.011 -0.1172 -0.1508  0.2279
 4520TP3     H113572   3.377   1.179   0.107 -0.4328  1.5993  0.3207
 4520TP3     H213573   3.286   1.220  -0.007  0.1019 -0.1079 -0.7591
 4521TP3      O13574   5.018   0.911   0.738 -0.6194 -0.5359 -0.1360
 4521TP3     H113575   5.026   0.845   0.669 -1.2081  0.6327 -1.3924
 4521TP3     H213576   5.064   0.874   0.813  1.2095 -1.3205 -1.5591
 4522TP3      O13577   4.036   0.368   0.499  0.8092 -0.0605  0.5209
 4522TP3     H113578   3.995   0.417   0.570  1.0446  0.9234 -0.0148
 4522TP3     H213579   4.122   0.410   0.488 -0.2039  1.5289 -2.0769
 4523TP3      O13580   3.704   0.536   0.743 -0.1211  0.3142  0.0966
 4523TP3     H113581   3.684   0.445   0.764 -0.3591  0.4405  0.4212
 4523TP3     H213582   3.718   0.578   0.828  0.5078  0.4629 -0.0766
 4524TP3      O13583   4.337   0.481   1.027 -0.6885 -0.0511  0.5663
 4524TP3     H113584   4.349   0.573   1.053  0.4519  0.4553 -1.4788
 4524TP3     H213585   4.424   0.454   0.997 -1.2507 -1.4668  0.1646
 4525TP3      O13586   5.418   1.135   1.647  0.2187  0.0654  0.1554
 4525TP3     H113587   5.477   1.088   1.706 -1.7943  1.3362  3.4328
 4525TP3     H213588   5.334   1.091   1.658 -0.3061  0.6038 -1.5358
 4526TP3      O13589   4.226   0.198   0.771  0.1812 -0.0402  0.6747
 4526TP3     H113590   4.214   0.114   0.725  1.6215 -0.2649  0.6715
 4526TP3     H213591   4.300   0.239   0.727 -0.1153  0.9601  1.0883
 4527TP3      O13592   3.898   0.554   0.298 -0.4454 -0.1184  0.7056
 4527TP3     H113593   3.816   0.541   0.346  0.0548 -1.8136  1.1872
 4527TP3     H213594   3.955   0.484   0.330  0.4756 -0.2798 -1.1770
 4528TP3      O13595   4.716   0.270   0.946  0.1737 -0.4643  0.9313
 4528TP3     H113596   4.718   0.361   0.916  1.9754 -1.2644 -1.7529
 4528TP3     H213597   4.636   0.234   0.906 -1.2391  0.1489  3.0280
 4529TP3      O13598   4.098   1.761   1.582 -0.2134 -0.1111 -0.0502
 4529TP3     H113599   4.186   1.746   1.617  0.3271 -0.8358 -1.6102
 4529TP3     H213600   4.057   1.674   1.583 -0.7484  0.1434  0.2630
 4530TP3      O13601   5.983   0.554   2.616  0.0704  0.1314  0.1577
 4530TP3     H113602   5.951   0.479   2.566  0.5136 -0.9509  1.4407
 4530TP3     H213603   6.041   0.600   2.555  0.6672 -1.2055 -0.3140
 4531TP3      O13604   5.102   0.439   1.127 -0.5214  0.3268 -0.0754
 4531TP3     H113605   5.045   0.513   1.149 -3.9363 -1.4968 -1.9825
 4531TP3     H213606   5.052   0.362   1.155  1.5683 -1.3988 -0.8627
 4532TP3      O13607   4.811   5.346   0.376 -0.2342 -0.0161 -0.3270
 4532TP3     H113608   4.905   5.357   0.391  0.1794 -1.6620 -1.4226
 4532TP3     H213609   4.797   5.385   0.290 -0.5269  0.1214 -0.2150
 4533TP3      O13610   4.729   1.367   5.126 -0.1631 -0.5228  0.2699
 4533TP3     H113611   4.693   1.313   5.196  0.9318 -1.2613  0.2808
 4533TP3     H213612   4.762   1.445   5.170 -1.4875  0.0589  0.2874
 4534TP3      O13613   5.130   0.799   0.963  0.7698 -0.1397  0.2869
 4534TP3     H113614   5.136   0.890   0.992 -1.3202  0.5295 -1.1226
 4534TP3     H213615   5.041   0.773   0.985  1.9200 -2.6123  2.5275
 4535TP3      O13616   3.723   0.988   1.416  0.5834  0.2401  0.5323
 4535TP3     H113617   3.805   0.943   1.438  0.5501  0.2310  0.6361
 4535TP3     H213618   3.688   1.016   1.500  1.2691  1.6255  0.3867
 4536TP3      O13619   4.128   0.970   2.147 -0.4340 -0.8112 -0.7119
 4536TP3     H113620   4.145   1.040   2.084  0.3893  1.3348  1.7180
 4536TP3     H213621   4.214   0.951   2.185 -1.1343 -0.7099  1.0152
 4537TP3      O13622   4.998   0.017   2.001  0.1670  0.3141 -0.6638
 4537TP3     H113623   4.949   0.082   2.051  0.5879  0.2848 -0.2043
 4537TP3     H213624   4.940  -0.060   1.999 -0.1219  0.5323 -0.7814
 4538TP3      O13625   4.784   5.314   1.483  0.3036 -0.7654  0.4748
 4538TP3     H113626   4.811   5.352   1.399  0.8377  0.2749  1.0966
 4538TP3     H213627   4.818   5.224   1.481  1.2556 -0.4090  0.0143
 4539TP3      O13628   3.687   1.469   0.837  0.4447  0.0365  0.6279
 4539TP3     H113629   3.616   1.465   0.901 -0.2691  1.5440 -0.0178
 4539TP3     H213630   3.643   1.488   0.754  1.3268 -2.1046 -0.3891
 4540TP3      O13631   4.049   1.473   1.220 -0.7664 -0.1581 -0.1696
 4540TP3     H113632   3.987   1.537   1.184 -1.1766  0.6204  1.7551
 4540TP3     H213633   4.126   1.525   1.245  0.0094 -0.8622 -1.0463
 4541TP3      O13634   4.587   1.464   0.674  0.0360 -0.1439  0.3505
 4541TP3     H113635   4.647   1.535   0.654 -0.0742 -0.3256 -0.6649
 4541TP3     H213636   4.544   1.491   0.755  0.0651  0.8982  0.0291
 4542TP3      O13637   3.004   1.089   1.264  0.4552 -0.1977  0.0033
 4542TP3     H113638   3.081   1.041   1.298 -1.2463 -1.4222  2.4516
 4542TP3     H213639   2.942   1.020   1.241 -1.8211  0.6680  3.0002
 4543TP3      O13640   3.761   0.591   1.556 -0.2127 -0.2015  0.5737
 4543TP3     H113641   3.680   0.589   1.504  0.2412  0.1438 -0.1553
 4543TP3     H213642   3.786   0.499   1.564 -1.0827 -0.3842  1.4662
 4544TP3      O13643   3.919   1.265   1.299 -0.2634 -0.4801  0.2048
 4544TP3     H113644   3.933   1.348   1.254 -0.0859  0.1510  1.3829
 4544TP3     H213645   3.844   1.281   1.356  1.4428 -0.1713  2.5466
 4545TP3      O13646   4.437   0.805   5.693 -0.1372  0.1122 -0.4111
 4545TP3     H113647   4.482   0.885   5.664 -0.4719  0.2067 -0.6766
 4545TP3     H213648   4.436   0.812   5.788 -0.0561  0.3670 -0.4281
 4546TP3      O13649   5.793   0.290   1.651  0.1977 -0.1337 -0.0382
 4546TP3     H113650   5.876   0.315   1.692  1.7514 -1.9466 -1.8832
 4546TP3     H213651   5.811   0.292   1.557 -1.2829 -2.3720 -0.4503
 4547TP3      O13652   3.770   1.336   2.532  0.1416 -0.2824 -0.3645
 4547TP3     H113653   3.776   1.282   2.610  1.1669 -1.5984 -1.3150
 4547TP3     H213654   3.852   1.385   2.531 -0.9321  1.6836  0.6966
 4548TP3      O13655   4.598   0.417   1.329 -0.3017  0.3000  0.2252
 4548TP3     H113656   4.571   0.325   1.326 -1.1461  0.5293  0.6520
 4548TP3     H213657   4.579   0.444   1.419  0.1207  0.8425  0.1536
 4549TP3      O13658   4.269   2.521   2.820 -0.2275  0.3317  0.4669
 4549TP3     H113659   4.218   2.469   2.882  0.9313 -0.9952  0.3652
 4549TP3     H213660   4.307   2.456   2.760  2.6881  1.0525  1.3511
 4550TP3      O13661   4.491   5.284   5.713  0.3888  0.6676 -0.2726
 4550TP3     H113662   4.556   5.228   5.669  0.0184 -0.4938  0.6054
 4550TP3     H213663   4.499   5.262   5.805 -1.5049  0.2125 -0.1710
 4551TP3      O13664   2.005   5.790   1.058 -0.0836 -0.8378  0.2022
 4551TP3     H113665   1.921   5.785   1.014  0.7324 -0.1922 -1.5032
 4551TP3     H213666   2.013   5.882   1.083  0.9525 -0.4443 -1.4425
 4552TP3      O13667   5.789   0.609   1.532 -0.1677 -0.3546 -0.3445
 4552TP3     H113668   5.835   0.610   1.616 -1.6549 -2.3909  0.6024
 4552TP3     H213669   5.835   0.543   1.481 -1.1254 -1.4044  0.0975
 4553TP3      O13670   5.433   1.216   0.495 -0.0907 -0.0350  0.6732
 4553TP3     H113671   5.358   1.203   0.437  1.1001 -0.5502 -0.8380
 4553TP3     H213672   5.414   1.296   0.543 -1.8258 -0.4413  0.7105
 4554TP3      O13673   5.486   0.911   0.053 -0.5781  0.2347  0.0040
 4554TP3     H113674   5.531   0.838   0.098  2.1474  1.5109 -0.4810
 4554TP3     H213675   5.473   0.976   0.122 -0.2665  0.4985 -0.1885
 4555TP3      O13676   3.438   2.328   1.349 -0.2554 -0.1827 -0.9659
 4555TP3     H113677   3.529   2.301   1.347 -0.0698  0.3843 -3.3660
 4555TP3     H213678   3.395   2.273   1.283 -1.1315  1.1704 -1.5679
 4556TP3      O13679   3.181   1.571   1.217 -0.5937  0.1272 -0.0722
 4556TP3     H113680   3.117   1.508   1.250  0.8810 -0.8801  0.9737
 4556TP3     H213681   3.148   1.596   1.130 -3.0886  0.6791  0.9455
 4557TP3      O13682   4.335   2.075   2.156  0.1454  0.0056 -0.1312
 4557TP3     H113683   4.329   2.112   2.067 -0.8581 -0.0491 -0.1023
 4557TP3     H213684   4.247   2.042   2.173  0.8021 -1.6612  0.1743
 4558TP3      O13685   5.891   0.481   0.366  0.3922 -0.6825  0.1327
 4558TP3     H113686   5.914   0.391   0.341  1.1006  0.1010 -2.3335
 4558TP3     H213687   5.931   0.535   0.298 -1.2169  1.4202  0.7766
 4559TP3      O13688   4.669   5.610   0.521  0.4001 -0.0763  0.1228
 4559TP3     H113689   4.641   5.524   0.551 -0.4432 -0.4891 -1.6991
 4559TP3     H213690   4.598   5.669   0.545  1.5610  0.4562  2.5980
 4560TP3      O13691   0.307   2.025   0.429  0.2016  0.4682  0.6015
 4560TP3     H113692   0.212   2.039   0.431  0.0234 -0.6537  1.0691
 4560TP3     H213693   0.316   1.930   0.430  1.3359  0.5634  0.2465
 4561TP3      O13694   4.014   1.448   1.685 -0.9833 -0.3441  0.2989
 4561TP3     H113695   3.935   1.448   1.631 -1.7671  0.9260  1.3733
 4561TP3     H213696   3.981   1.458   1.774  0.4373  2.0365  0.6349
 4562TP3      O13697   0.078   1.941   0.607 -0.0555  0.0832 -0.1215
 4562TP3     H113698   0.142   1.886   0.653  0.1026 -2.3369 -2.9065
 4562TP3     H213699   0.033   1.989   0.677  0.9698 -2.3538  2.4131
 4563TP3      O13700   4.001   0.328   2.145  0.2220 -0.7682  0.1576
 4563TP3     H113701   4.057   0.396   2.108 -0.2063 -0.3613  0.2432
 4563TP3     H213702   3.929   0.320   2.082  1.1579 -2.4090 -0.7740
 4564TP3      O13703   4.560   2.321   1.086  0.1117  0.7055  0.1389
 4564TP3     H113704   4.472   2.290   1.062 -0.2781  1.0585  1.0404
 4564TP3     H213705   4.584   2.266   1.161  0.6622  0.6178 -0.1012
 4565TP3      O13706   3.779   1.999   0.986  0.5839  0.4887  0.8906
 4565TP3     H113707   3.800   1.932   0.921  0.0475  0.5739  0.6312
 4565TP3     H213708   3.767   1.949   1.067 -0.4059  0.1902  0.5792
 4566TP3      O13709   0.042   5.591   0.234  0.2184  0.0595  0.1452
 4566TP3     H113710  -0.015   5.516   0.249 -0.2769  0.2179 -0.9023
 4566TP3     H213711   0.015   5.656   0.300  0.2968 -0.4712  0.7074
 4567TP3      O13712   3.745   0.603   5.407 -0.6634  0.6001 -0.1554
 4567TP3     H113713   3.829   0.650   5.411  0.9376 -2.0556  0.1421
 4567TP3     H213714   3.706   0.618   5.493  0.2035  0.6876  0.2330
 4568TP3      O13715   4.964   1.604  -0.024  0.2229 -0.5315  0.1049
 4568TP3     H113716   4.890   1.650   0.018  0.0309 -0.7550  0.0142
 4568TP3     H213717   4.997   1.545   0.044  0.2507 -0.5084  0.1115
 4569TP3      O13718   4.479   0.150   2.015 -0.0993 -0.3284 -0.2938
 4569TP3     H113719   4.404   0.105   2.053 -1.2929  0.3229 -1.8005
 4569TP3     H213720   4.464   0.243   2.034  1.1107 -0.2934  0.6705
 4570TP3      O13721   4.891   0.939   6.002 -0.7527  0.0954 -0.3764
 4570TP3     H113722   4.871   1.010   5.940 -0.2972  1.1407  0.6365
 4570TP3     H213723   4.980   0.957   6.030 -0.7534 -0.6971  0.1536
 4571TP3      O13724   0.699   1.146   0.146 -0.1851 -0.1122  0.1236
 4571TP3     H113725   0.645   1.103   0.080  1.4885 -0.2624 -1.2079
 4571TP3     H213726   0.725   1.229   0.106 -0.8836  0.8035  1.4776
 4572TP3      O13727   4.786   0.192   1.343  0.0146 -0.8562 -0.1870
 4572TP3     H113728   4.869   0.239   1.347 -0.2204 -0.5087  1.0143
 4572TP3     H213729   4.775   0.156   1.432 -1.0421 -1.0257 -0.3784
 4573TP3      O13730   5.820   0.991   1.185  0.1001  0.5170  0.2511
 4573TP3     H113731   5.871   0.933   1.241 -0.4207  0.2531  0.4653
 4573TP3     H213732   5.752   1.025   1.242  0.5918  1.6014  0.2087
 4574TP3      O13733   4.588   1.633   0.336  0.2045 -0.2486 -0.0931
 4574TP3     H113734   4.566   1.700   0.401  1.3263 -1.5822  1.7711
 4574TP3     H213735   4.561   1.551   0.377 -0.1221 -1.0609 -1.8401
 4575TP3      O13736   4.969   5.754   5.655 -0.5202  0.0955 -0.3944
 4575TP3     H113737   4.985   5.742   5.749 -0.6593  2.0597 -0.0723
 4575TP3     H213738   4.987   5.669   5.616 -1.1652 -0.9647  1.5039
 4576TP3      O13739   3.615   1.124   0.897  0.6738 -0.0130 -0.0721
 4576TP3     H113740   3.686   1.065   0.874  0.8148 -1.3748  3.2353
 4576TP3     H213741   3.594   1.170   0.816  3.9995 -0.9161 -1.6116
 4577TP3      O13742   5.804   5.112   0.908 -0.2411 -0.0323  0.1017
 4577TP3     H113743   5.720   5.088   0.869  0.3572 -0.4830 -0.9930
 4577TP3     H213744   5.797   5.087   1.000 -0.4151 -2.5877 -0.5268
 4578TP3      O13745   3.944   0.940   5.896  0.1091 -0.3031 -0.3006
 4578TP3     H113746   3.878   1.009   5.896 -1.6128 -1.8124  1.2175
 4578TP3     H213747   3.903   0.868   5.848  1.2802 -0.7775 -0.6222
 4579TP3      O13748   3.393   1.528   2.354 -0.0825  0.4642  0.5335
 4579TP3     H113749   3.423   1.579   2.279 -0.7730 -0.1935 -0.2086
 4579TP3     H213750   3.469   1.474   2.376 -0.3218 -0.4000 -0.6399
 4580TP3      O13751   2.806   0.788   2.612  0.9329  0.2922  0.0023
 4580TP3     H113752   2.899   0.779   2.630  1.9027  1.6301 -3.4921
 4580TP3     H213753   2.794   0.882   2.593 -1.5822  0.5476  2.1644
 4581TP3      O13754   3.178   0.727   5.201  0.4979 -0.9762  0.0198
 4581TP3     H113755   3.126   0.808   5.205  0.2207 -1.0174 -1.8895
 4581TP3     H213756   3.267   0.754   5.223  0.3105 -0.2474 -0.0999
 4582TP3      O13757   4.883   1.641   0.644  0.4453 -0.1983 -0.0141
 4582TP3     H113758   4.845   1.609   0.562  0.5301 -1.5821  0.4538
 4582TP3     H213759   4.960   1.691   0.617  1.0528 -1.4802 -0.7566
 4583TP3      O13760   3.693   5.253   0.410  0.0019 -0.2840 -0.4060
 4583TP3     H113761   3.724   5.342   0.425  0.3869 -0.7444  1.8695
 4583TP3     H213762   3.610   5.248   0.458  0.4251 -1.3985  0.2390
 4584TP3      O13763   4.845   1.180   5.860 -0.3058 -0.4217 -0.2404
 4584TP3     H113764   4.932   1.207   5.889  0.3552 -1.0812 -1.5136
 4584TP3     H213765   4.786   1.249   5.891  0.3648 -0.8497  2.2476
 4585TP3      O13766   3.773   1.315   2.242  0.2731  0.1694 -0.2062
 4585TP3     H113767   3.743   1.323   2.332  0.8114  0.4948 -0.0515
 4585TP3     H213768   3.844   1.250   2.246  0.5142  0.4246 -0.3411
 4586TP3      O13769   4.713   1.573   5.521 -0.2007 -0.0299 -0.5258
 4586TP3     H113770   4.633   1.619   5.549 -0.1995  0.7179 -1.6548
 4586TP3     H213771   4.771   1.578   5.596 -1.1585 -0.4341  0.2584
 4587TP3      O13772   4.269   0.570   1.904 -0.0322 -0.1966 -0.6631
 4587TP3     H113773   4.357   0.603   1.885 -0.4713  0.9258 -0.8516
 4587TP3     H213774   4.231   0.553   1.817  0.7093 -2.7808 -0.5757
 4588TP3      O13775   5.290   1.952   3.579 -0.1792 -0.2103 -0.0730
 4588TP3     H113776   5.379   1.987   3.578 -0.0903 -0.4348 -0.1451
 4588TP3     H213777   5.260   1.959   3.488 -0.2349 -0.1368 -0.0494
 4589TP3      O13778   3.467   1.152   1.820 -0.3272  0.2280  0.5709
 4589TP3     H113779   3.498   1.197   1.899 -3.1069  2.2221  0.6599
 4589TP3     H213780   3.387   1.107   1.847 -1.3312  0.9442 -1.0528
 4590TP3      O13781   5.255   1.019   1.236 -0.0913 -0.3707 -0.6522
 4590TP3     H113782   5.303   1.093   1.199 -1.7941  0.8443 -0.5662
 4590TP3     H213783   5.316   0.980   1.299  0.3708  1.9304  0.4457
 4591TP3      O13784   4.916   0.230   0.162 -0.0906  1.0103  0.2139
 4591TP3     H113785   4.974   0.265   0.095 -0.3706 -0.4190 -0.8331
 4591TP3     H213786   4.858   0.170   0.115 -0.9658  0.7189  1.5792
 4592TP3      O13787   4.104   0.953   0.800 -0.5971 -0.3579 -0.1550
 4592TP3     H113788   4.135   0.863   0.801 -1.0168 -0.6030  3.3910
 4592TP3     H213789   4.168   1.002   0.852 -1.4987  0.9338 -0.1998
 4593TP3      O13790   4.948   0.843   1.311 -0.7267  0.4184  0.4495
 4593TP3     H113791   4.864   0.824   1.354 -0.1192 -1.0824  1.0584
 4593TP3     H213792   5.013   0.834   1.380 -0.0402  1.5449 -0.0235
 4594TP3      O13793   5.910   1.465   0.959  0.1980  0.0402 -0.3997
 4594TP3     H113794   5.897   1.539   1.017 -1.0766  0.7354 -1.5070
 4594TP3     H213795   5.913   1.389   1.017 -2.7422  0.5053  0.5512
 4595TP3      O13796   4.380   1.089   0.838  0.6736 -0.4414 -0.4519
 4595TP3     H113797   4.351   1.151   0.771  1.0578  0.6782  0.3715
 4595TP3     H213798   4.466   1.123   0.865  0.5508 -0.9091  0.5576
 4596TP3      O13799   4.527   0.840   0.737  0.1787 -0.2851  0.5435
 4596TP3     H113800   4.587   0.840   0.662  2.1600  1.1777  2.0076
 4596TP3     H213801   4.483   0.926   0.732  0.0104 -0.3529  0.8170
 4597TP3      O13802   4.909   0.682   1.065  0.0508 -0.0969  0.2289
 4597TP3     H113803   4.934   0.727   1.146 -0.5935  1.8463 -0.5867
 4597TP3     H213804   4.814   0.677   1.070 -0.0705  0.8142 -0.7512
 4598TP3      O13805   3.927   1.147   5.472  0.1989 -0.1922  0.1617
 4598TP3     H113806   3.928   1.238   5.442 -0.9032 -0.0183  0.5931
 4598TP3     H213807   3.892   1.098   5.398 -0.8359 -0.0111  0.5148
 4599TP3      O13808   4.907   1.400   0.825 -0.8423 -0.0430 -0.1780
 4599TP3     H113809   4.960   1.416   0.903 -1.7434 -1.0014  0.6597
 4599TP3     H213810   4.931   1.470   0.764  1.5041 -0.5292  0.0905
 4600TP3      O13811   4.062   2.233   2.171  0.0251 -0.0594  0.0866
 4600TP3     H113812   4.052   2.189   2.255 -0.3403 -0.2893 -0.0732
 4600TP3     H213813   3.999   2.305   2.175  1.4354  1.1873  0.8127
 4601TP3      O13814   4.229   1.045   5.307 -0.1021  0.5974  0.1118
 4601TP3     H113815   4.149   1.071   5.261 -0.0792  0.3511 -0.0731
 4601TP3     H213816   4.295   1.109   5.279  0.3585 -0.5126 -1.5725
 4602TP3      O13817   4.894   1.542   1.157 -0.0358 -0.0967  0.4559
 4602TP3     H113818   4.947   1.526   1.236  1.3448 -2.0135 -0.7720
 4602TP3     H213819   4.831   1.470   1.156  0.3547 -0.4415 -0.4782
 4603TP3      O13820   5.416   5.704   1.432 -0.5500  0.6300  0.4277
 4603TP3     H113821   5.335   5.670   1.395 -0.7977  2.4751 -0.8777
 4603TP3     H213822   5.477   5.631   1.427 -1.9556 -0.6260  0.9390
 4604TP3      O13823   3.632   0.454   0.388  0.0229 -0.5546  0.4071
 4604TP3     H113824   3.613   0.499   0.470  1.4118  1.3271 -0.2278
 4604TP3     H213825   3.559   0.479   0.330  0.4123  0.3486  0.2810
 4605TP3      O13826   4.707   1.325   1.460 -0.2083 -0.5976  0.1625
 4605TP3     H113827   4.674   1.413   1.444 -1.1659 -1.1987 -1.3607
 4605TP3     H213828   4.757   1.304   1.381  0.1517 -1.3656  0.5854
 4606TP3      O13829   4.193   1.006   1.115 -0.2246 -0.1420 -0.0880
 4606TP3     H113830   4.185   1.095   1.147 -0.1292 -0.5928  1.2441
 4606TP3     H213831   4.246   0.961   1.181 -1.6707 -1.5996  0.1492
 4607TP3      O13832   3.284   2.062   5.454 -0.4313  0.5272  0.1104
 4607TP3     H113833   3.273   2.127   5.386  1.6894  1.7455  0.8134
 4607TP3     H213834   3.293   2.113   5.535 -2.0193 -0.8274  1.2019
 4608TP3      O13835   5.549   0.624   1.446  0.3092 -0.0148  0.4632
 4608TP3     H113836   5.644   0.621   1.459  0.3494 -2.7208  0.1861
 4608TP3     H213837   5.531   0.549   1.389 -2.0979 -0.1826  1.3333
 4609TP3      O13838   5.660   5.981   1.392 -0.5204 -0.0728 -0.1264
 4609TP3     H113839   5.754   5.997   1.394 -0.2778 -1.4833  0.4346
 4609TP3     H213840   5.637   5.983   1.300 -0.1058  1.1235 -0.2196
 4610TP3      O13841   4.084   0.694   1.174  0.1223  0.0597  0.2284
 4610TP3     H113842   4.143   0.622   1.197  0.7404  0.3162 -0.5333
 4610TP3     H213843   4.140   0.772   1.172  0.1162  0.0748 -2.0395
 4611TP3      O13844   3.893   1.377   1.934  0.4955 -0.3109  0.0219
 4611TP3     H113845   3.927   1.298   1.975 -2.7073 -1.5406  0.6725
 4611TP3     H213846   3.855   1.427   2.006 -0.9886 -0.1532 -0.8177
 4612TP3      O13847   5.883   5.990   5.480 -0.6243 -0.0434 -0.5360
 4612TP3     H113848   5.855   6.033   5.399 -2.6558  1.6974  0.9992
 4612TP3     H213849   5.822   5.917   5.492 -2.0198  1.2608  0.6839
 4613TP3      O13850   5.354   0.188   0.880  0.2748  0.6756  0.0278
 4613TP3     H113851   5.271   0.140   0.875  0.9699 -0.6484  0.5933
 4613TP3     H213852   5.331   0.272   0.919 -0.9660  0.7734 -0.8508
 4614TP3      O13853   5.911   0.071   1.124 -0.1950  0.2235  0.4119
 4614TP3     H113854   5.842   0.117   1.077 -1.8794 -2.3960  0.0626
 4614TP3     H213855   5.928  -0.007   1.070  1.6168 -0.1901  1.5107
 4615TP3      O13856   3.733   0.233   0.831 -0.0353 -0.4701  0.4177
 4615TP3     H113857   3.704   0.282   0.908 -3.2663 -0.8247 -0.4203
 4615TP3     H213858   3.711   0.142   0.851  1.0600 -0.8680 -0.1242
 4616TP3      O13859   5.110   1.281   5.908 -0.0044 -0.2891 -0.4607
 4616TP3     H113860   5.113   1.330   5.989  0.0744  1.1273 -1.2887
 4616TP3     H213861   5.199   1.247   5.896  0.5342  1.2446 -0.9712
 4617TP3      O13862   3.635   1.968   1.597 -0.0256  0.8063  0.3782
 4617TP3     H113863   3.579   1.908   1.647  0.8151  0.1008  0.4887
 4617TP3     H213864   3.619   1.945   1.506 -1.2827  1.8478  0.3028
 4618TP3      O13865   3.878   0.426   3.273  0.1650 -0.6115  0.4348
 4618TP3     H113866   3.786   0.452   3.264  0.3732 -0.3433 -1.2222
 4618TP3     H213867   3.911   0.424   3.183  2.2858  1.1818  1.0909
 4619TP3      O13868   2.537   0.637   2.150 -0.3919 -0.2840 -0.7648
 4619TP3     H113869   2.631   0.651   2.158 -0.2476 -1.6517  0.5277
 4619TP3     H213870   2.498   0.721   2.174  0.4751 -0.3850  1.1847
 4620TP3      O13871   3.656   1.634   3.292  0.6380  0.4767  0.7379
 4620TP3     H113872   3.722   1.673   3.349  0.2489 -0.2716  1.7271
 4620TP3     H213873   3.579   1.625   3.348  0.2292 -0.2271  0.0766
 4621TP3      O13874   0.274   1.284   3.204 -0.0024  0.0191  0.1382
 4621TP3     H113875   0.352   1.236   3.176 -0.3370 -0.1143 -0.5642
 4621TP3     H213876   0.300   1.323   3.288  0.2571 -1.4078  0.7501
 4622TP3      O13877   4.889   1.433   2.607 -0.1340 -0.2644 -0.2016
 4622TP3     H113878   4.916   1.344   2.626  0.8777 -0.1103 -0.8380
 4622TP3     H213879   4.966   1.473   2.566 -0.4435  1.0123  0.4234
 4623TP3      O13880   5.280   5.992   2.033 -0.3372 -0.7021  0.2645
 4623TP3     H113881   5.196   6.020   2.069 -0.5405 -1.5068  0.4358
 4623TP3     H213882   5.295   5.906   2.072 -0.3206 -1.3810 -1.1994
 4624TP3      O13883   4.913   1.035   2.350  0.2775  0.2864  0.0082
 4624TP3     H113884   4.921   1.050   2.444  3.2936 -0.5983  0.0182
 4624TP3     H213885   4.891   0.942   2.343  2.5259 -0.3140 -0.0644
 4625TP3      O13886   4.580   0.942   3.694  0.4440  0.4197 -0.0317
 4625TP3     H113887   4.538   1.013   3.742 -0.5897 -0.7175  0.8100
 4625TP3     H213888   4.673   0.949   3.717  0.6502  2.4351 -1.2356
 4626TP3      O13889   3.906   0.108   2.804 -0.7034  0.2427  0.2343
 4626TP3     H113890   3.814   0.085   2.804 -0.2373 -1.8389 -0.3419
 4626TP3     H213891   3.911   0.187   2.751 -2.0358 -0.2054 -0.6076
 4627TP3      O13892   4.818   1.423   3.376 -0.7162 -0.0076  0.2884
 4627TP3     H113893   4.896   1.454   3.329 -0.8800  0.4447  0.3044
 4627TP3     H213894   4.775   1.364   3.314 -0.1894 -0.5235  0.4051
 4628TP3      O13895   4.053   1.651   2.860  0.2489 -0.4066  0.2867
 4628TP3     H113896   4.112   1.585   2.824  1.1876 -0.1767  1.3639
 4628TP3     H213897   3.978   1.600   2.893  0.8298 -0.9180  0.8432
 4629TP3      O13898   5.521   1.011   2.978 -0.0714 -0.2775 -0.4499
 4629TP3     H113899   5.513   1.036   2.886 -1.9318  0.2849 -0.1943
 4629TP3     H213900   5.431   1.014   3.011  0.5007 -0.8659  1.2936
 4630TP3      O13901   3.801   0.492   3.533 -0.3798 -0.1903  0.1218
 4630TP3     H113902   3.846   0.463   3.454  2.5984 -0.8831  1.8954
 4630TP3     H213903   3.800   0.415   3.590  0.3089  0.9945  1.8438
 4631TP3      O13904   4.727   5.855   3.107  0.7046 -0.0678  0.0195
 4631TP3     H113905   4.702   5.767   3.135 -0.8355 -0.2512 -1.7725
 4631TP3     H213906   4.715   5.909   3.185  0.7860 -1.2603  0.8877
 4632TP3      O13907   3.782   1.697   2.415 -0.2161 -0.5636  0.1109
 4632TP3     H113908   3.876   1.681   2.424 -0.4593 -2.5028 -0.4905
 4632TP3     H213909   3.748   1.695   2.504  0.0603 -1.5977  0.1995
 4633TP3      O13910   4.951   0.377   3.819 -0.5760 -0.4885  0.4737
 4633TP3     H113911   4.943   0.350   3.727 -2.5160 -1.4091  0.8575
 4633TP3     H213912   5.019   0.444   3.818  0.4280 -1.4402 -1.4212
 4634TP3      O13913   4.054   2.178   2.785 -0.5554  0.0551 -0.5860
 4634TP3     H113914   4.096   2.097   2.811  1.1431  0.8967 -0.5748
 4634TP3     H213915   3.975   2.150   2.738 -0.1297 -1.5738 -0.3870
 4635TP3      O13916   4.748   1.146   2.591  0.0108  0.2444  0.0017
 4635TP3     H113917   4.683   1.165   2.523 -0.3384  1.5915  0.6610
 4635TP3     H213918   4.708   1.178   2.672  2.6933  4.3675  0.0307
 4636TP3      O13919   4.607   0.967   3.408 -0.1555  0.0491 -0.0546
 4636TP3     H113920   4.591   0.930   3.495 -0.3979 -1.0222 -0.5317
 4636TP3     H213921   4.557   1.049   3.407 -2.3613 -1.2164 -0.0804
 4637TP3      O13922   4.280   1.019   1.680  0.7515  0.0578  0.3186
 4637TP3     H113923   4.194   1.025   1.638  0.3272  3.1464  1.4233
 4637TP3     H213924   4.334   1.082   1.632  2.8916 -2.6441 -1.1371
 4638TP3      O13925   5.515   5.866   2.504  0.8991  0.2238 -0.2955
 4638TP3     H113926   5.495   5.918   2.427  2.4337  1.3040  0.0116
 4638TP3     H213927   5.581   5.804   2.475  3.7137  2.5320  0.7336
 4639TP3      O13928   3.396   0.926   3.256 -0.1891  0.0599 -0.2079
 4639TP3     H113929   3.436   1.007   3.289  0.9372 -0.5874  0.0726
 4639TP3     H213930   3.326   0.907   3.319  1.0871 -0.4465  1.1276
 4640TP3      O13931   5.281   1.700   2.788  0.4363 -0.3627  0.2677
 4640TP3     H113932   5.205   1.748   2.753  1.3093  0.1126 -1.0432
 4640TP3     H213933   5.312   1.648   2.715  1.3389 -0.6125  0.8138
 4641TP3      O13934   2.940   1.428   2.216 -0.0515  0.4493 -0.2339
 4641TP3     H113935   2.891   1.391   2.143 -0.2032 -0.0525  0.1187
 4641TP3     H213936   2.909   1.519   2.222  0.0217  0.5178 -0.8373
 4642TP3      O13937   5.123   0.458   2.107 -0.1899 -0.4172 -0.1274
 4642TP3     H113938   5.175   0.537   2.091 -2.4924  1.0037 -0.9595
 4642TP3     H213939   5.144   0.434   2.197  0.0608  1.5610  0.3881
 4643TP3      O13940   4.906   1.034   1.818 -0.2642 -0.3109 -0.5846
 4643TP3     H113941   4.923   0.984   1.898 -0.8680  0.6325  0.1560
 4643TP3     H213942   4.858   1.111   1.848 -0.5982  0.0028 -1.8834
 4644TP3      O13943   3.629   0.418   3.199  0.3775 -0.0612 -0.2836
 4644TP3     H113944   3.664   0.333   3.171  1.0136 -0.3347  1.2451
 4644TP3     H213945   3.535   0.411   3.184  0.0474 -2.0081  2.0511
 4645TP3      O13946   4.271   1.134   2.853 -0.0447 -0.2955  0.1265
 4645TP3     H113947   4.261   1.107   2.762  0.2992 -1.2619  0.3702
 4645TP3     H213948   4.223   1.217   2.858  0.9513  0.3861 -1.2082
 4646TP3      O13949   4.910   0.926   2.088 -0.4349 -0.1699  0.1782
 4646TP3     H113950   4.850   0.852   2.094 -2.3059  1.1176 -1.4394
 4646TP3     H213951   4.885   0.984   2.160 -0.6521  0.0285 -0.0548
 4647TP3      O13952   5.241   5.873   1.679 -0.1784 -0.1929  0.0685
 4647TP3     H113953   5.329   5.887   1.643 -0.1193 -1.4188 -0.3048
 4647TP3     H213954   5.230   5.942   1.744  1.1136 -0.0936  0.2011
 4648TP3      O13955   4.166   1.676   3.430 -0.3114 -0.8535  0.1700
 4648TP3     H113956   4.103   1.679   3.501  0.1789 -3.6425  0.8142
 4648TP3     H213957   4.251   1.671   3.473 -0.0077 -2.6480 -0.5498
 4649TP3      O13958   5.358   0.416   2.332  0.1422 -0.1043  0.2621
 4649TP3     H113959   5.333   0.328   2.363  0.6054  0.1260  1.3490
 4649TP3     H213960   5.384   0.403   2.241 -2.7440 -0.5689 -0.6082
 4650TP3      O13961   5.290   1.185   2.519  0.7604  0.1292  0.3835
 4650TP3     H113962   5.279   1.102   2.474  0.4619 -0.1201  0.9169
 4650TP3     H213963   5.203   1.208   2.550  0.5878  1.2834 -0.8701
 4651TP3      O13964   3.516   5.605   2.885  0.7152  0.2339 -0.5429
 4651TP3     H113965   3.504   5.510   2.881 -1.1587  0.4617 -1.9020
 4651TP3     H213966   3.511   5.626   2.978  1.5976 -1.0298 -0.1861
 4652TP3      O13967   4.845   2.778   3.199 -0.1213  0.3572  0.4103
 4652TP3     H113968   4.814   2.691   3.224 -0.1101  0.2948  0.2110
 4652TP3     H213969   4.764   2.828   3.185 -0.1261  0.4068  0.6239
 4653TP3      O13970   0.246   1.907   2.183  0.3721  0.0434 -0.6150
 4653TP3     H113971   0.242   1.841   2.113  1.4740 -0.5306 -0.1658
 4653TP3     H213972   0.274   1.987   2.139  1.0547 -0.3111 -0.8438
 4654TP3      O13973   4.515   5.812   1.692  0.1048  0.2880 -0.8049
 4654TP3     H113974   4.584   5.746   1.682 -1.0852 -1.0616 -0.4585
 4654TP3     H213975   4.557   5.883   1.741  0.7687 -1.2892  1.0697
 4655TP3      O13976   4.777   0.718   3.119  0.5434 -0.2040 -0.2493
 4655TP3     H113977   4.852   0.671   3.082 -0.8566 -2.8761  0.1155
 4655TP3     H213978   4.750   0.665   3.194 -0.7143  1.6014  0.6498
 4656TP3      O13979   0.030   1.182   2.643  0.1116  0.0271 -0.1984
 4656TP3     H113980  -0.065   1.179   2.636 -0.3822  2.2064  3.4472
 4656TP3     H213981   0.056   1.090   2.647 -1.7318 -0.6210 -1.4685
 4657TP3      O13982   4.920   0.645   4.029  0.0708 -0.2889 -0.1827
 4657TP3     H113983   4.951   0.734   4.045 -2.0762  1.0206 -2.5968
 4657TP3     H213984   4.994   0.601   3.986  0.8996  0.5283  0.3780
 4658TP3      O13985   4.898   0.129   3.090 -0.1193  0.1739 -0.7122
 4658TP3     H113986   4.930   0.039   3.088  1.1167  0.5690  0.1207
 4658TP3     H213987   4.862   0.139   3.178 -0.9924  0.2712 -1.0674
 4659TP3      O13988   4.899   0.244   3.350  0.4353 -0.0040  0.4650
 4659TP3     H113989   4.931   0.228   3.438 -1.0666 -0.6528  0.9317
 4659TP3     H213990   4.858   0.331   3.355 -0.5724 -0.4756  0.7129
 4660TP3      O13991   4.634   5.250   2.847 -0.1234  0.9064 -0.2666
 4660TP3     H113992   4.689   5.202   2.784  0.0022 -1.8467  1.7305
 4660TP3     H213993   4.673   5.337   2.851  1.2190  0.4756 -2.3182
 4661TP3      O13994   4.495   1.523   1.819  0.3187 -0.1852 -0.7310
 4661TP3     H113995   4.580   1.533   1.776  0.4923  0.8269 -0.1753
 4661TP3     H213996   4.515   1.485   1.904  0.0772 -1.1626 -1.0982
 4662TP3      O13997   3.182   1.287   2.086 -0.0158  0.2738  0.2976
 4662TP3     H113998   3.124   1.353   2.124  2.0770  1.9242  0.7982
 4662TP3     H213999   3.186   1.218   2.153  0.2460  1.1283  1.1788
 4663TP3      O14000   3.131   1.452   3.709 -0.4505  0.5754  1.2224
 4663TP3     H114001   3.077   1.383   3.746  1.6348 -1.2997  0.9531
 4663TP3     H214002   3.069   1.520   3.684 -2.8195 -1.8967 -0.1174
 4664TP3      O14003   4.989   0.752   2.413 -0.0405  0.3958 -0.3570
 4664TP3     H114004   4.904   0.716   2.388  0.4844 -0.6246 -0.7277
 4664TP3     H214005   5.046   0.675   2.425  1.1970  1.0822 -1.4982
 4665TP3      O14006   5.728   5.935   3.165 -0.0503  0.2124 -0.1219
 4665TP3     H114007   5.793   5.941   3.095 -0.1469 -1.1198 -0.3514
 4665TP3     H214008   5.654   5.987   3.135  0.0372 -0.0853 -0.8659
 4666TP3      O14009   5.216   0.937   2.374  0.0888  0.0797 -0.1126
 4666TP3     H114010   5.136   0.883   2.369 -0.6507  1.1989 -0.9431
 4666TP3     H214011   5.287   0.873   2.378 -0.8562 -0.9501  1.2199
 4667TP3      O14012   5.002   1.054   3.126 -0.0424  0.0144 -0.4736
 4667TP3     H114013   5.010   1.095   3.213 -0.0125 -0.3623 -0.2976
 4667TP3     H214014   4.908   1.054   3.109 -0.2741 -1.8077  0.4938
 4668TP3      O14015   4.709   1.836   3.158 -0.6332 -0.0168  0.2217
 4668TP3     H114016   4.669   1.765   3.207  1.6606 -0.0773  2.1410
 4668TP3     H214017   4.668   1.916   3.193 -1.6033 -0.2455 -0.3661
 4669TP3      O14018   3.834   1.866   2.931 -0.5724  0.4151  0.7060
 4669TP3     H114019   3.899   1.801   2.958 -0.0180  0.8015  0.3034
 4669TP3     H214020   3.752   1.816   2.926  0.0334 -0.5137 -0.6434
 4670TP3      O14021   4.270   0.409   2.386  0.8491 -0.0960 -0.2646
 4670TP3     H114022   4.331   0.342   2.417  0.9084 -0.6075 -1.4550
 4670TP3     H214023   4.185   0.383   2.423  1.1282 -0.0045  0.4657
 4671TP3      O14024   5.221   1.127   4.208 -0.2240  0.0259  0.3804
 4671TP3     H114025   5.242   1.150   4.118 -1.3091 -2.4382 -0.5956
 4671TP3     H214026   5.129   1.100   4.206 -0.5377  0.7044  2.4197
 4672TP3      O14027   3.821   1.217   3.049 -0.3843 -0.4959  0.2633
 4672TP3     H114028   3.894   1.155   3.058 -2.1793 -2.5625  1.5467
 4672TP3     H214029   3.863   1.303   3.053  1.9424 -1.5818  1.6628
 4673TP3      O14030   4.495   0.766   3.225  0.6687  0.2456 -0.3927
 4673TP3     H114031   4.511   0.806   3.311  2.4404  1.7849 -1.3634
 4673TP3     H214032   4.575   0.783   3.176  0.2997 -1.9728 -1.8793
 4674TP3      O14033   3.823   1.339   3.824 -0.2940  0.0357 -0.3711
 4674TP3     H114034   3.772   1.272   3.778  0.3109  1.5235 -3.4562
 4674TP3     H214035   3.758   1.404   3.852 -0.5085 -0.0346 -0.7011
 4675TP3      O14036   4.317   2.116   1.898 -0.3256 -0.4857  0.2478
 4675TP3     H114037   4.265   2.091   1.822 -1.1060 -0.7116  0.8466
 4675TP3     H214038   4.403   2.140   1.862 -0.6317 -0.7620 -0.6756
 4676TP3      O14039   3.399   0.959   4.450  0.3709 -0.2377 -0.4164
 4676TP3     H114040   3.306   0.946   4.429  0.2246  0.4609 -0.2218
 4676TP3     H214041   3.398   1.004   4.535  0.8705  0.2490 -0.6630
 4677TP3      O14042   3.893   0.953   2.531 -0.3541  0.3808  0.3991
 4677TP3     H114043   3.797   0.957   2.532 -0.3610  1.7161  2.7867
 4677TP3     H214044   3.916   0.918   2.617  1.3047  1.3233  0.3921
 4678TP3      O14045   4.033   1.821   1.992  0.2543 -0.4602  0.4282
 4678TP3     H114046   3.980   1.897   1.968 -0.3907 -1.2962 -0.9432
 4678TP3     H214047   4.000   1.750   1.936  2.9107 -1.0077 -0.6042
 4679TP3      O14048   4.651   0.041   1.842 -0.4706  0.0188 -0.0512
 4679TP3     H114049   4.586   0.086   1.897  0.6106  0.5829  0.8104
 4679TP3     H214050   4.662  -0.044   1.884 -0.9632 -0.2529 -0.4579
 4680TP3      O14051   3.566   1.948   3.407 -0.6762  0.3420  0.4173
 4680TP3     H114052   3.490   1.914   3.361  0.0145 -0.5267 -0.1165
 4680TP3     H214053   3.607   1.871   3.446 -0.3935  0.8745  1.2048
 4681TP3      O14054   4.513   1.839   2.444 -0.1116 -0.2259 -0.9197
 4681TP3     H114055   4.571   1.839   2.520  0.3911 -0.7682 -1.3044
 4681TP3     H214056   4.538   1.918   2.395 -0.7731  0.4009 -0.2793
 4682TP3      O14057   4.117   1.121   1.387 -0.1167 -0.6558  0.0670
 4682TP3     H114058   4.065   1.100   1.465 -1.6492 -0.8990 -0.9727
 4682TP3     H214059   4.054   1.161   1.327  1.7702  3.4048  0.4208
 4683TP3      O14060   4.280   0.576   3.245  0.3385 -0.0534 -0.0572
 4683TP3     H114061   4.357   0.632   3.245 -0.6863  1.5625 -2.8466
 4683TP3     H214062   4.211   0.630   3.284 -0.4672  0.4108 -2.0313
 4684TP3      O14063   4.058   5.779   2.315  0.4245  0.1789  0.1756
 4684TP3     H114064   4.042   5.866   2.278 -0.0413  0.7103  1.5866
 4684TP3     H214065   3.971   5.743   2.329  0.5840  0.1135  1.0373
 4685TP3      O14066   5.178   0.558   4.635 -0.6746 -0.4493 -0.4917
 4685TP3     H114067   5.110   0.566   4.568 -0.9396  0.9510 -0.0838
 4685TP3     H214068   5.163   0.632   4.693  1.8533  0.5537 -0.9965
 4686TP3      O14069   3.943   0.892   2.804 -0.5638 -0.1775  0.6736
 4686TP3     H114070   3.856   0.875   2.840  0.0328 -0.3625  2.1040
 4686TP3     H214071   3.993   0.928   2.878  0.9360 -1.2790  0.2392
 4687TP3      O14072   0.093   0.930   2.709 -0.5718  0.1861 -0.5720
 4687TP3     H114073   0.034   0.874   2.659 -1.2796  0.2633  0.1530
 4687TP3     H214074   0.136   0.871   2.770 -0.6159  0.2837 -0.4471
 4688TP3      O14075   5.534   2.079   3.579 -0.2668  0.3994 -0.5669
 4688TP3     H114076   5.528   2.144   3.509 -1.8240  0.0534 -0.7909
 4688TP3     H214077   5.578   2.125   3.650 -1.3185  1.7352 -0.7201
 4689TP3      O14078   4.161   0.338   3.645 -0.2671 -0.0596 -0.4921
 4689TP3     H114079   4.173   0.253   3.603 -0.7337 -0.5419  0.3388
 4689TP3     H214080   4.136   0.396   3.573 -1.6789 -1.0150 -0.8297
 4690TP3      O14081   4.748   5.709   2.679  0.7348  0.4050 -0.2008
 4690TP3     H114082   4.783   5.790   2.643 -0.4921  0.8386 -0.4766
 4690TP3     H214083   4.678   5.684   2.619  1.0449 -0.8374 -0.0840
 4691TP3      O14084   5.225   2.007   2.034 -0.3781  0.1426 -0.2327
 4691TP3     H114085   5.201   1.937   1.973 -1.6413  0.8458 -0.5761
 4691TP3     H214086   5.193   1.977   2.118  0.1084 -0.1891 -0.1566
 4692TP3      O14087   4.894   5.626   1.065  0.2536 -0.1663 -0.3021
 4692TP3     H114088   4.984   5.631   1.035  0.6675 -0.1585  0.8966
 4692TP3     H214089   4.842   5.654   0.990  1.2522 -0.0223 -0.9532
 4693TP3      O14090   4.549   0.402   2.717 -0.2872 -0.6160 -0.1768
 4693TP3     H114091   4.465   0.440   2.745  0.5148  1.3219 -0.2424
 4693TP3     H214092   4.582   0.359   2.796 -1.1215 -1.0268 -0.0315
 4694TP3      O14093   4.407   0.996   1.956 -0.2256  0.3613 -0.2107
 4694TP3     H114094   4.488   1.047   1.948  0.7780 -1.3347 -1.6610
 4694TP3     H214095   4.376   0.986   1.867 -0.7031 -1.0210  0.0835
 4695TP3      O14096   5.170   2.000   3.333  0.1156  0.1344 -0.3888
 4695TP3     H114097   5.198   2.005   3.242 -1.4045 -0.4218 -0.9068
 4695TP3     H214098   5.075   1.993   3.329 -0.0046  0.4500  1.2605
 4696TP3      O14099   4.545   1.431   2.092  0.2084 -0.3482 -0.2597
 4696TP3     H114100   4.615   1.417   2.157  0.2957  2.4143  0.3389
 4696TP3     H214101   4.484   1.359   2.108  1.7753 -1.5239  0.7656
 4697TP3      O14102   4.179   1.476   3.225  0.0696  0.2893 -0.2860
 4697TP3     H114103   4.239   1.529   3.174  3.4161 -0.1155  2.8144
 4697TP3     H214104   4.126   1.539   3.274  1.0776  0.7630  0.2231
 4698TP3      O14105   4.940   5.882   1.700 -0.2803  0.1802  0.4107
 4698TP3     H114106   4.985   5.967   1.702  0.0600  0.0523 -0.9193
 4698TP3     H214107   4.898   5.880   1.614  1.3223 -1.8142 -0.4011
 4699TP3      O14108   3.290   5.432   3.507  0.6065  0.2395  0.1577
 4699TP3     H114109   3.225   5.436   3.436  2.0506  0.9618 -1.1715
 4699TP3     H214110   3.238   5.409   3.584 -0.8841 -1.7211 -1.2834
 4700TP3      O14111   4.266   5.354   2.348  0.3806 -0.1784  0.1567
 4700TP3     H114112   4.295   5.439   2.315  0.4453 -1.4938 -3.7038
 4700TP3     H214113   4.177   5.344   2.314  0.6038 -1.8936 -0.0205
 4701TP3      O14114   4.511   1.286   2.469 -0.8277  0.2913  0.1410
 4701TP3     H114115   4.521   1.374   2.433 -0.4167  0.5973  0.9749
 4701TP3     H214116   4.508   1.299   2.564 -4.2387 -0.2227  0.2303
 4702TP3      O14117   4.509   0.783   2.145 -0.0730  0.3033 -0.3046
 4702TP3     H114118   4.414   0.787   2.134 -0.1785 -0.6951  0.1720
 4702TP3     H214119   4.543   0.789   2.056 -0.6893 -1.7474 -0.7216
 4703TP3      O14120   5.772   0.930   2.811 -0.1334 -0.2744 -0.1648
 4703TP3     H114121   5.721   0.966   2.738 -0.5916 -0.3120  0.1301
 4703TP3     H214122   5.744   0.839   2.818 -0.2674 -0.2055  0.2101
 4704TP3      O14123   0.456   0.536   2.406  0.5873 -0.8037 -0.1033
 4704TP3     H114124   0.502   0.602   2.354 -0.4736 -0.2074 -0.3283
 4704TP3     H214125   0.363   0.557   2.393  0.2550 -1.9489  0.3501
 4705TP3      O14126   4.693   0.193   1.616 -0.6545  0.6285  0.2553
 4705TP3     H114127   4.607   0.226   1.642  0.0990  1.3266  1.9963
 4705TP3     H214128   4.714   0.126   1.681  0.5019  1.0929  0.3750
 4706TP3      O14129   4.290   1.933   2.577 -0.2131 -0.4221 -0.0365
 4706TP3     H114130   4.367   1.887   2.542  0.0932  0.2757 -0.3058
 4706TP3     H214131   4.285   1.906   2.669 -0.3070 -1.3354 -0.2982
 4707TP3      O14132   5.684   1.539   1.795 -0.2394  0.3986  0.5634
 4707TP3     H114133   5.746   1.579   1.734 -0.3608 -0.4261 -0.1197
 4707TP3     H214134   5.710   1.447   1.798 -1.6555 -0.0444 -0.0408
 4708TP3      O14135   5.577   0.890   2.439  0.1493 -0.1112  0.1917
 4708TP3     H114136   5.503   0.837   2.410  0.6135 -0.1369 -1.0040
 4708TP3     H214137   5.652   0.831   2.431  0.3477 -0.0067  1.1539
 4709TP3      O14138   4.118   1.159   1.942  0.4292  0.0378  0.2182
 4709TP3     H114139   4.177   1.211   1.888 -0.2763  1.3014  0.6343
 4709TP3     H214140   4.113   1.075   1.897  1.5263  0.3471 -0.5147
 4710TP3      O14141   6.017   1.567   3.715 -0.3014 -0.1920 -0.1595
 4710TP3     H114142   6.048   1.600   3.631 -0.5796  1.3039  0.2848
 4710TP3     H214143   5.932   1.526   3.695 -0.7305  0.8328 -0.5043
 4711TP3      O14144   4.499   1.284   2.749 -0.0328 -0.8684  0.0651
 4711TP3     H114145   4.571   1.277   2.811 -0.0258  2.2929  0.5703
 4711TP3     H214146   4.429   1.230   2.786  1.5509 -2.9021  0.2521
 4712TP3      O14147   5.251   1.537   3.819 -1.0436 -0.6564 -0.5063
 4712TP3     H114148   5.279   1.578   3.901 -2.1215  0.3687 -0.6304
 4712TP3     H214149   5.240   1.610   3.758  0.7919 -1.4756 -1.9289
 4713TP3      O14150   4.081   1.222   3.632  0.2976  0.0529 -0.0781
 4713TP3     H114151   4.004   1.260   3.675  0.4255  1.6152 -1.1679
 4713TP3     H214152   4.082   1.131   3.663 -1.8088  0.0601  0.1993
 4714TP3      O14153   5.617   1.006   3.950 -0.2683 -0.1080 -0.0702
 4714TP3     H114154   5.613   0.980   3.858 -0.8443 -1.2173  0.2648
 4714TP3     H214155   5.542   1.065   3.962 -0.4863 -0.3599 -0.1901
 4715TP3      O14156   4.117   5.982   3.258  0.2245  0.9469  0.2883
 4715TP3     H114157   4.074   5.906   3.296 -1.5381 -0.0725 -3.2739
 4715TP3     H214158   4.068   6.057   3.293 -0.8987  0.1237  0.5490
 4716TP3      O14159   4.929   0.923   2.645 -0.1369  0.2571  0.4396
 4716TP3     H114160   4.959   0.871   2.571 -1.2629  2.4091 -1.6820
 4716TP3     H214161   4.836   0.939   2.628  0.4670  4.4047 -0.1816
 4717TP3      O14162   4.776   0.696   2.070 -0.0813  0.6231  0.6536
 4717TP3     H114163   4.793   0.621   2.127  2.7880  0.4502 -0.2496
 4717TP3     H214164   4.844   0.690   2.002 -0.4651  3.3988 -0.0970
 4718TP3      O14165   4.329   0.846   2.465  0.3091  0.0220  0.1350
 4718TP3     H114166   4.386   0.773   2.492  1.0641  0.5497 -0.0057
 4718TP3     H214167   4.383   0.898   2.407  0.2026  1.3698  1.1976
 4719TP3      O14168   0.132   0.027   2.872 -0.0714  0.4010  0.2073
 4719TP3     H114169   0.128  -0.048   2.813  0.9099  0.3724  0.1675
 4719TP3     H214170   0.224   0.035   2.895 -0.2396  1.2776  0.6239
 4720TP3      O14171   4.148   2.244   3.814 -0.0894 -0.2022 -0.5400
 4720TP3     H114172   4.195   2.287   3.885 -0.5905 -1.2309  0.4533
 4720TP3     H214173   4.055   2.250   3.839 -0.3662  0.3349 -1.6328
 4721TP3      O14174   4.059   1.731   2.555  0.0495  0.1842 -0.0000
 4721TP3     H114175   4.081   1.639   2.571  1.1077  0.5684  0.9024
 4721TP3     H214176   4.138   1.779   2.580 -0.8627  1.4300  0.5931
 4722TP3      O14177   4.135   5.652   2.852  0.5189  0.1059  0.1495
 4722TP3     H114178   4.067   5.656   2.786  0.1108  0.9115  0.5970
 4722TP3     H214179   4.190   5.728   2.834  1.4854 -0.6958 -0.3860
 4723TP3      O14180   5.041   0.326   2.406  0.1223  0.1019  0.4749
 4723TP3     H114181   5.101   0.383   2.453  1.0639  0.0072 -0.5789
 4723TP3     H214182   4.990   0.385   2.351  0.6712  0.0030 -0.1532
 4724TP3      O14183   5.056   1.457   3.208  0.1293  0.2051  1.0511
 4724TP3     H114184   5.132   1.446   3.265  1.2486  1.2566 -0.1800
 4724TP3     H214185   5.044   1.552   3.203 -0.4988  0.0938  0.2338
 4725TP3      O14186   5.327   0.654   2.935  0.1014 -0.5442  0.0082
 4725TP3     H114187   5.352   0.582   2.877  1.5210 -0.3574  0.3336
 4725TP3     H214188   5.238   0.677   2.909  0.5274 -0.7787 -1.7613
 4726TP3      O14189   3.399   1.434   3.730  0.0361 -0.1696  0.0138
 4726TP3     H114190   3.390   1.349   3.686  0.2712  0.1224 -0.6131
 4726TP3     H214191   3.310   1.470   3.731  0.0180 -0.2104 -0.1518
 4727TP3      O14192   3.797   1.700   3.708  0.3017  0.0217 -0.5818
 4727TP3     H114193   3.805   1.613   3.669 -1.9197  0.3313 -1.9009
 4727TP3     H214194   3.710   1.701   3.749  0.8627  1.1591  0.6827
 4728TP3      O14195   4.388   1.018   2.238  0.0326  0.4348  0.4509
 4728TP3     H114196   4.427   1.001   2.152  1.7280  1.4711  0.9686
 4728TP3     H214197   4.375   1.112   2.241  1.9520  0.7112  2.0706
 4729TP3      O14198   4.184   0.399   4.637  0.0170  0.4910 -0.3907
 4729TP3     H114199   4.160   0.308   4.619 -1.9847  1.0088 -0.5555
 4729TP3     H214200   4.253   0.418   4.573 -0.7256 -0.3994 -1.4978
 4730TP3      O14201   3.489   1.287   3.049 -0.3830  0.0155 -0.1910
 4730TP3     H114202   3.572   1.300   3.094 -0.0651 -1.3852 -0.3260
 4730TP3     H214203   3.456   1.375   3.032  0.1019  0.5848  1.6369
 4731TP3      O14204   5.153   1.258   3.686 -0.1811 -0.3565 -0.2731
 4731TP3     H114205   5.245   1.284   3.681 -0.2089 -0.0915  0.5389
 4731TP3     H214206   5.106   1.340   3.701 -0.3293 -0.7567  1.6571
 4732TP3      O14207   5.248   0.148   3.001  0.6189  0.1962 -0.5274
 4732TP3     H114208   5.253   0.157   2.906 -0.7082  1.3707 -0.5279
 4732TP3     H214209   5.167   0.099   3.015  0.8081  0.0331 -0.0002
 4733TP3      O14210   4.490   5.653   2.514  0.0568  0.0072 -0.1419
 4733TP3     H114211   4.448   5.716   2.573 -0.4659 -1.7034  1.3723
 4733TP3     H214212   4.438   5.658   2.434 -1.6895 -0.4509  0.9189
 4734TP3      O14213   2.273   0.040   3.544  0.1021 -0.1229 -0.1811
 4734TP3     H114214   2.351   0.021   3.493 -0.9192  1.6161 -2.6010
 4734TP3     H214215   2.261   0.135   3.536 -2.0801 -0.2923  0.3656
 4735TP3      O14216   3.640   1.484   3.547 -0.6288 -0.3372 -0.0369
 4735TP3     H114217   3.608   1.422   3.612 -2.4551  0.8348  0.2481
 4735TP3     H214218   3.562   1.508   3.496  0.4499  0.0182 -1.6000
 4736TP3      O14219   4.129   0.667   2.434 -0.1566  0.3803 -0.2465
 4736TP3     H114220   4.176   0.751   2.429 -0.7432  0.6886 -0.6684
 4736TP3     H214221   4.187   0.605   2.389  0.4078  0.5000  0.3106
 4737TP3      O14222   5.968   0.947   3.462 -0.0191 -0.4322  0.0437
 4737TP3     H114223   6.024   0.921   3.389  0.7662  0.4942  0.2957
 4737TP3     H214224   5.916   1.020   3.427 -0.0055 -0.3208  0.2546
 4738TP3      O14225   4.036   5.106   1.531 -0.5500  0.3216  0.1942
 4738TP3     H114226   4.109   5.054   1.564  0.9735  1.8275 -0.6062
 4738TP3     H214227   4.076   5.164   1.466 -2.1854  2.2503  0.7951
 4739TP3      O14228   4.928   0.296   1.999  0.3576 -0.5876  0.0664
 4739TP3     H114229   4.972   0.370   2.041 -0.5868 -1.0057  1.8967
 4739TP3     H214230   4.965   0.292   1.911  0.8669  1.6803  0.1317
 4740TP3      O14231   4.683   0.933   3.011  0.0533  0.4732  0.1829
 4740TP3     H114232   4.610   0.898   2.960  2.0596 -1.9358 -1.2696
 4740TP3     H214233   4.728   0.855   3.046  0.8652  1.9267  2.6606
 4741TP3      O14234   5.051   1.190   2.687 -0.3296  0.2595 -0.1290
 4741TP3     H114235   5.027   1.097   2.691  0.5482  0.0479  0.6858
 4741TP3     H214236   5.034   1.223   2.776  1.1949  0.3914  0.1302
 4742TP3      O14237   5.762   1.140   3.070 -0.1969  0.2895 -0.1585
 4742TP3     H114238   5.750   1.074   3.002  0.0964 -0.2834  0.3380
 4742TP3     H214239   5.680   1.140   3.119 -1.3577  2.3653 -1.8941
 4743TP3      O14240   4.258   0.383   3.048  0.3099  0.8261  0.0980
 4743TP3     H114241   4.270   0.452   3.113  0.1299  1.3818 -0.4457
 4743TP3     H214242   4.257   0.429   2.964 -0.0223  0.1856 -0.2608
 4744TP3      O14243   4.937   5.606   1.469 -0.2429 -0.1277  0.1721
 4744TP3     H114244   4.930   5.551   1.547  0.4834  0.4529  0.6535
 4744TP3     H214245   4.850   5.601   1.429 -0.3510 -1.1776  0.5048
 4745TP3      O14246   5.554   2.301   1.275 -0.3098  0.4341 -0.2667
 4745TP3     H114247   5.531   2.348   1.355 -0.6885  0.6744 -0.5214
 4745TP3     H214248   5.553   2.208   1.301 -0.6291  0.5005 -0.0447
 4746TP3      O14249   5.368   1.505   2.621  0.7186 -0.3896 -1.3018
 4746TP3     H114250   5.316   1.444   2.569  1.6644 -0.1540 -2.5555
 4746TP3     H214251   5.457   1.494   2.590  1.2843 -0.0460  0.1039
 4747TP3      O14252   4.290   0.498   2.777 -0.2959 -0.0550  0.4011
 4747TP3     H114253   4.218   0.446   2.742 -0.9613  0.5985  0.7696
 4747TP3     H214254   4.265   0.589   2.760  0.0180  0.2180  1.3249
 4748TP3      O14255   3.898   0.542   2.551 -0.6809 -0.3670 -0.1892
 4748TP3     H114256   3.824   0.570   2.498 -0.0825  0.9546 -0.3512
 4748TP3     H214257   3.973   0.588   2.514  0.0955 -1.0668  0.4767
 4749TP3      O14258   4.030   1.011   3.050  0.4940 -0.1316 -0.6268
 4749TP3     H114259   4.014   0.945   3.118  0.4347  0.8483  0.3285
 4749TP3     H214260   4.119   1.041   3.066  0.4730  0.1245 -0.9698
 4750TP3      O14261   4.351   0.149   3.187 -0.6824 -0.5605 -0.2263
 4750TP3     H114262   4.268   0.101   3.194 -0.4235 -1.0436 -0.4942
 4750TP3     H214263   4.327   0.231   3.143 -1.5752  0.6574  2.2814
 4751TP3      O14264   4.824   1.478   2.347 -0.3198 -0.5199  0.0289
 4751TP3     H114265   4.730   1.490   2.359 -0.3672 -0.7064 -0.1553
 4751TP3     H214266   4.857   1.459   2.435 -0.4845 -0.6485  0.0641
 4752TP3      O14267   3.488   1.274   2.083 -0.1821  0.0240 -0.0187
 4752TP3     H114268   3.522   1.269   2.172 -0.2336  0.2580  0.0153
 4752TP3     H214269   3.397   1.303   2.093 -0.3980 -0.6133 -0.1083
 4753TP3      O14270   3.575   1.428   2.773  0.3282 -0.2463  0.0518
 4753TP3     H114271   3.586   1.335   2.793 -1.0366 -0.2635  0.8918
 4753TP3     H214272   3.480   1.439   2.765  0.4020  1.2406  0.8446
 4754TP3      O14273   4.234   1.096   2.591  0.2321 -0.5522  0.9066
 4754TP3     H114274   4.202   1.006   2.589 -1.0335 -0.1047  0.0833
 4754TP3     H214275   4.290   1.104   2.515  0.6323 -0.7391  1.1789
 4755TP3      O14276   4.157   0.739   2.738  0.0585  0.1327  0.3639
 4755TP3     H114277   4.160   0.695   2.653 -1.1380 -0.9519  0.8551
 4755TP3     H214278   4.072   0.783   2.741  0.8642  1.7846  0.2550
 4756TP3      O14279   3.082   0.900   2.585  0.9816  0.1488 -0.1722
 4756TP3     H114280   3.131   0.842   2.643 -1.6446 -1.8146  0.2739
 4756TP3     H214281   3.065   0.978   2.638  3.5874  0.9393 -0.3888
 4757TP3      O14282   5.035   0.895   3.669  0.5740  0.3348  0.1697
 4757TP3     H114283   4.977   0.918   3.742  1.4892  0.2086  0.9662
 4757TP3     H214284   4.979   0.894   3.592 -0.3774  0.6831  0.8472
 4758TP3      O14285   5.099   1.308   2.038 -0.0847  0.0023 -0.3550
 4758TP3     H114286   5.143   1.236   2.082 -1.0569 -1.2355 -1.3525
 4758TP3     H214287   5.100   1.380   2.102  0.2049 -1.1233  0.9379
 4759TP3      O14288   4.986   1.162   3.914 -0.0260 -0.4318  0.6186
 4759TP3     H114289   4.920   1.229   3.935 -1.1889 -1.3683  0.0662
 4759TP3     H214290   5.019   1.187   3.828  0.7254  0.3264  1.1184
 4760TP3      O14291   4.308   1.045   3.122  0.0263 -0.1405  0.0970
 4760TP3     H114292   4.360   0.966   3.109 -0.5143 -0.4189 -0.4954
 4760TP3     H214293   4.308   1.088   3.036 -0.5058 -0.0192  0.1524
 4761TP3      O14294   4.776   0.965   3.856  0.6364 -0.3186 -0.1182
 4761TP3     H114295   4.719   0.938   3.928  0.0435 -1.0515 -0.8389
 4761TP3     H214296   4.840   1.023   3.896 -0.6024  0.5097  0.7301
 4762TP3      O14297   4.412   1.632   3.540 -0.7291  0.1095  0.0361
 4762TP3     H114298   4.474   1.647   3.612 -1.5125 -0.3784  0.8318
 4762TP3     H214299   4.398   1.537   3.540  0.1573 -0.0460 -1.5337
 4763TP3      O14300   3.893   0.905   1.901  0.3890 -0.1717 -0.3907
 4763TP3     H114301   3.834   0.946   1.965 -1.7733 -2.9026 -0.4520
 4763TP3     H214302   3.975   0.892   1.948 -0.2994  0.2563  0.9816
 4764TP3      O14303   3.211   1.030   3.804  0.2094  0.6325 -0.2658
 4764TP3     H114304   3.183   0.950   3.760  2.3956 -0.0503 -0.5578
 4764TP3     H214305   3.220   1.005   3.896 -2.1544  1.4453  0.2373
 4765TP3      O14306   4.750   0.508   3.321  0.3993  0.1266 -0.7977
 4765TP3     H114307   4.753   0.537   3.412 -1.3448  3.3929 -1.6110
 4765TP3     H214308   4.690   0.433   3.321 -0.3923  0.7252  0.6369
 4766TP3      O14309   4.526   0.642   2.507 -0.4613  0.1640 -0.5837
 4766TP3     H114310   4.560   0.590   2.580  1.0550  0.7140 -0.8675
 4766TP3     H214311   4.484   0.578   2.450  3.0079 -1.1999 -1.9095
 4767TP3      O14312   4.777   1.803   2.900 -0.2868 -0.1079 -0.3763
 4767TP3     H114313   4.750   1.818   2.991  0.3103 -0.1913 -0.1810
 4767TP3     H214314   4.827   1.721   2.904  0.6765  0.4556 -0.5907
 4768TP3      O14315   4.833   1.174   3.557 -0.1193 -0.1914  0.4357
 4768TP3     H114316   4.835   1.251   3.501  3.6821 -0.4225  0.0091
 4768TP3     H214317   4.839   1.208   3.646 -0.1011  0.0647  0.3359
 4769TP3      O14318   3.650   1.349   3.285  0.3209 -0.3448 -0.2458
 4769TP3     H114319   3.652   1.441   3.258  0.5022 -0.3701 -0.3225
 4769TP3     H214320   3.558   1.331   3.302  0.3157 -0.0772  0.0150
 4770TP3      O14321   4.383   2.283   4.023  0.5404  0.5192 -0.6161
 4770TP3     H114322   4.443   2.211   4.041 -0.7028 -0.2219  0.7927
 4770TP3     H214323   4.369   2.325   4.107  0.3916  1.7475 -1.2238
 4771TP3      O14324   5.669   5.782   2.281 -0.2638  0.5140  0.2228
 4771TP3     H114325   5.738   5.818   2.336 -1.3663  0.4635  1.7029
 4771TP3     H214326   5.715   5.730   2.216  1.0714 -0.0505  1.5584
 4772TP3      O14327   5.454   1.295   2.191  0.2346  0.4367  0.2966
 4772TP3     H114328   5.366   1.257   2.195 -0.9847  3.1650  3.2295
 4772TP3     H214329   5.512   1.225   2.220 -1.2404 -0.7374  0.5080
 4773TP3      O14330   3.440   1.930   4.395  0.1235 -0.0355 -0.5105
 4773TP3     H114331   3.453   1.915   4.489  0.3748  1.1149 -0.3545
 4773TP3     H214332   3.383   1.858   4.368  0.9877 -1.0459  0.2751
 4774TP3      O14333   4.938   0.371   2.993 -0.3075  0.4637  0.6356
 4774TP3     H114334   4.935   0.277   3.008  1.1212  0.1103 -0.9430
 4774TP3     H214335   5.029   0.396   3.013  0.1122  0.9544 -1.5277
 4775TP3      O14336   3.815   1.131   3.368 -0.6374 -0.4960  0.3089
 4775TP3     H114337   3.736   1.182   3.349  0.9066  1.7277 -0.5878
 4775TP3     H214338   3.882   1.170   3.312  0.7158 -3.5892 -0.4508
 4776TP3      O14339   4.620   1.137   1.891  0.9084  0.4481  0.1449
 4776TP3     H114340   4.675   1.199   1.938  1.8784 -0.1635 -0.1639
 4776TP3     H214341   4.639   1.152   1.799  0.6609  0.1400  0.0389
 4777TP3      O14342   5.171   1.480   4.193 -0.0977 -0.0953  0.5132
 4777TP3     H114343   5.197   1.388   4.186  0.0731 -0.0021 -0.1805
 4777TP3     H214344   5.200   1.507   4.280 -0.8650 -0.9196  1.0464
 4778TP3      O14345   5.902   0.089   2.117 -0.8667  0.3183 -0.2904
 4778TP3     H114346   5.822   0.064   2.070 -0.1129 -0.1355 -1.3630
 4778TP3     H214347   5.871   0.111   2.205 -2.3704  1.4702 -1.0465
 4779TP3      O14348   4.311   5.637   2.272  0.1616  0.1566 -0.1995
 4779TP3     H114349   4.224   5.674   2.262 -0.7323 -1.9751 -0.8907
 4779TP3     H214350   4.352   5.649   2.186  0.3784  0.6520 -0.0367
 4780TP3      O14351   5.507   2.369   2.406 -0.1585 -0.2718 -0.3328
 4780TP3     H114352   5.449   2.440   2.433  0.9039  0.8963 -0.9890
 4780TP3     H214353   5.543   2.398   2.322 -0.7072 -2.2142 -1.2987
 4781TP3      O14354   5.447   1.128   3.692 -0.0291  0.8193 -0.5764
 4781TP3     H114355   5.492   1.180   3.758  0.8448 -1.0727  0.3819
 4781TP3     H214356   5.378   1.081   3.739 -1.7811  2.1315 -1.6805
 4782TP3      O14357   4.462   0.820   1.616 -0.0862 -0.5622  0.3204
 4782TP3     H114358   4.393   0.885   1.607  0.9075  0.5979  0.6650
 4782TP3     H214359   4.466   0.803   1.711 -0.7283 -1.5901  0.1779
 4783TP3      O14360   5.094   1.358   1.515 -0.0522  0.9495  0.1906
 4783TP3     H114361   5.077   1.323   1.603  0.0871  0.9382  0.2128
 4783TP3     H214362   5.055   1.294   1.456 -2.4264  2.1761  0.2858
 4784TP3      O14363   3.538   1.796   3.718  0.2287  0.8559 -0.5105
 4784TP3     H114364   3.497   1.808   3.633  1.4298 -1.9252 -1.5986
 4784TP3     H214365   3.469   1.755   3.772 -0.2005  1.6512 -0.4345
 4785TP3      O14366   4.987   0.902   4.116 -0.8308 -0.0737 -0.9174
 4785TP3     H114367   5.022   0.896   4.205 -0.5956  0.8855 -0.9316
 4785TP3     H214368   4.960   0.993   4.107 -3.0940 -0.6754 -1.0103
 4786TP3      O14369   4.328   1.725   1.690  0.2704  0.1832  0.4254
 4786TP3     H114370   4.394   1.765   1.633  1.6891  2.7407  3.4980
 4786TP3     H214371   4.377   1.663   1.744 -0.5670 -0.5544  0.3591
 4787TP3      O14372   5.058   0.132   1.765  0.1681  0.1904 -0.9917
 4787TP3     H114373   5.134   0.181   1.733 -0.0678 -0.0747 -2.0210
 4787TP3     H214374   5.078   0.112   1.856  0.6577  1.4419 -0.8085
 4788TP3      O14375   4.519   1.539   2.366  0.9631  0.1248 -0.8809
 4788TP3     H114376   4.475   1.590   2.434 -0.5956 -2.4988  0.2191
 4788TP3     H214377   4.459   1.544   2.291  1.5796  1.1346 -1.3302
 4789TP3      O14378   5.269   0.992   3.094  0.0378 -0.1551  0.2695
 4789TP3     H114379   5.185   1.031   3.116  0.7990  2.3808 -0.9405
 4789TP3     H214380   5.249   0.926   3.028 -0.8988  1.3552 -1.0035
 4790TP3      O14381   4.910   2.043   2.469  0.0611  0.6431  0.0220
 4790TP3     H114382   4.890   1.960   2.514 -0.7545 -0.1283 -1.6833
 4790TP3     H214383   4.847   2.105   2.506 -0.4337  0.0905  0.1187
 4791TP3      O14384   3.460   1.475   4.160 -0.0069 -0.1925  0.9055
 4791TP3     H114385   3.404   1.529   4.104  0.8166  1.2348  1.4019
 4791TP3     H214386   3.410   1.464   4.240 -0.8814 -1.6244  0.2043
 4792TP3      O14387   4.423   0.776   2.947  0.1577 -0.2765  0.5262
 4792TP3     H114388   4.363   0.735   2.886  0.7990  0.6142 -0.7505
 4792TP3     H214389   4.401   0.739   3.032 -0.7802 -1.5211 -0.2393
 4793TP3      O14390   3.764   0.404   2.269 -0.3781  0.2330  0.0851
 4793TP3     H114391   3.783   0.493   2.239  2.4358 -0.6882 -1.2630
 4793TP3     H214392   3.848   0.371   2.302 -1.4439 -1.7618  1.0043
 4794TP3      O14393   5.721   0.814   3.138  0.6328 -0.0781  0.0862
 4794TP3     H114394   5.635   0.843   3.169  0.0257 -1.9550  0.2725
 4794TP3     H214395   5.730   0.854   3.052 -0.1889  0.5864  0.2935
 4795TP3      O14396   3.765   0.292   2.618 -0.1680 -0.2790  0.4601
 4795TP3     H114397   3.791   0.379   2.589 -0.5556  1.0426  3.6328
 4795TP3     H214398   3.829   0.233   2.578  2.2358  1.8544  0.9196
 4796TP3      O14399   5.058   1.646   2.529  0.1687 -0.0661  0.6398
 4796TP3     H114400   5.052   1.738   2.555 -1.6378 -0.2421  1.0439
 4796TP3     H214401   5.142   1.637   2.486  0.1021  1.9153  0.0510
 4797TP3      O14402   5.049   0.635   3.393  0.4312 -0.2899 -0.8143
 4797TP3     H114403   4.986   0.707   3.387 -0.6668 -0.6988  3.1561
 4797TP3     H214404   5.001   0.558   3.362 -0.0852 -0.1169 -0.4604
 4798TP3      O14405   5.897   1.396   3.367 -0.2861  0.1022 -0.1160
 4798TP3     H114406   5.899   1.310   3.326 -0.7940  0.0426 -0.0308
 4798TP3     H214407   5.922   1.380   3.458 -0.2233  0.0696 -0.1390
 4799TP3      O14408   4.193   0.614   3.611  0.0747 -0.0553 -0.0197
 4799TP3     H114409   4.251   0.687   3.635 -0.6288  0.4788  0.1011
 4799TP3     H214410   4.134   0.652   3.546 -0.7104 -0.3407  0.5192
 4800TP3      O14411   5.906   1.144   3.814  0.5874  0.0316  0.2883
 4800TP3     H114412   5.847   1.151   3.889 -0.3044  0.7294 -0.4660
 4800TP3     H214413   5.984   1.194   3.841 -0.7888  2.6577 -0.2345
 4801TP3      O14414   4.267   1.392   3.489 -0.0818 -0.5611 -0.0032
 4801TP3     H114415   4.191   1.358   3.537 -0.0346 -0.8778 -0.1493
 4801TP3     H214416   4.231   1.460   3.432 -0.1569 -0.2678  0.3878
 4802TP3      O14417   5.078   0.289   2.696 -0.1820  0.4711  0.0766
 4802TP3     H114418   5.069   0.204   2.653  1.0871 -0.2935  1.2763
 4802TP3     H214419   4.991   0.330   2.686  0.2082  0.7234 -3.9136
 4803TP3      O14420   4.593   0.486   2.255 -0.0061 -0.1156  0.6204
 4803TP3     H114421   4.596   0.582   2.252 -0.3723 -0.1024  0.5824
 4803TP3     H214422   4.527   0.463   2.190 -1.2639 -0.3015  1.9148
 4804TP3      O14423   4.328   1.264   2.127  0.3798 -0.1522 -0.3780
 4804TP3     H114424   4.292   1.252   2.038  0.1590 -0.8571 -0.2021
 4804TP3     H214425   4.289   1.346   2.157  1.7889  0.9959 -1.5686
 4805TP3      O14426   5.245   1.083   2.152  0.0020  1.2979 -0.0136
 4805TP3     H114427   5.231   1.017   2.083 -2.4126  1.5819  0.0996
 4805TP3     H214428   5.207   1.043   2.230  0.0784  2.1461  0.4617
 4806TP3      O14429   5.520   1.026   2.685  0.0827 -0.1783 -0.1499
 4806TP3     H114430   5.544   0.978   2.606  0.9507 -1.0244  0.6082
 4806TP3     H214431   5.454   1.089   2.655  0.8213 -0.0725 -1.6456
 4807TP3      O14432   3.808   0.716   1.029 -0.2498  0.3636  0.5920
 4807TP3     H114433   3.760   0.792   1.060  1.2771  0.7145  2.2568
 4807TP3     H214434   3.898   0.731   1.059  1.4018  0.5839 -3.7955
 4808TP3      O14435   4.402   2.487   3.243  0.1864  0.0996  0.3300
 4808TP3     H114436   4.311   2.503   3.267  0.3439  0.5012  0.6722
 4808TP3     H214437   4.408   2.392   3.232 -1.0315  0.2753 -2.8238
 4809TP3      O14438   4.835   0.461   2.715  0.1076  0.5045  0.0599
 4809TP3     H114439   4.837   0.417   2.800 -0.4672  1.2482  0.4715
 4809TP3     H214440   4.742   0.468   2.694  0.1415  2.0976  0.3232
 4810TP3      O14441   3.353   0.739   1.741  0.8591  0.3660 -0.4774
 4810TP3     H114442   3.441   0.773   1.726  1.1756  0.6287  1.6246
 4810TP3     H214443   3.361   0.645   1.727  1.6741  0.2918  0.3802
 4811TP3      O14444   5.506   1.672   2.980 -0.0817 -0.1977  0.0216
 4811TP3     H114445   5.465   1.751   3.016 -1.0302 -0.7462  0.1707
 4811TP3     H214446   5.454   1.652   2.902  0.9459  0.0415 -0.7516
 4812TP3      O14447   3.645   1.264   4.410  0.2952 -0.4122 -0.0202
 4812TP3     H114448   3.741   1.259   4.401  0.3602 -0.0281  0.4292
 4812TP3     H214449   3.623   1.193   4.470  0.3134 -0.4201 -0.0226
 4813TP3      O14450   3.534   2.008   2.521 -0.0929 -0.7295 -0.5954
 4813TP3     H114451   3.498   2.061   2.592 -0.6134  1.0345 -2.0891
 4813TP3     H214452   3.618   1.977   2.555 -1.1105 -1.4265  1.4079
 4814TP3      O14453   5.056   0.688   2.808 -0.0386  0.1475 -0.0974
 4814TP3     H114454   4.983   0.627   2.800 -1.2089  0.8224  3.5558
 4814TP3     H214455   5.027   0.766   2.760 -0.3077 -0.6668 -1.3032
 4815TP3      O14456   5.588   0.440   2.871  0.2785  0.6961  0.2677
 4815TP3     H114457   5.586   0.355   2.914  0.6635  1.4132  1.7608
 4815TP3     H214458   5.502   0.448   2.829  0.0021 -0.1651  0.6563
 4816TP3      O14459   3.297   0.571   3.539  0.6529  0.2450  0.2672
 4816TP3     H114460   3.320   0.478   3.544 -0.9319 -0.1698  0.3949
 4816TP3     H214461   3.374   0.613   3.502  0.9902 -1.2867 -0.8471
 4817TP3      O14462   5.505   2.035   2.334  0.2434  0.2307 -0.2598
 4817TP3     H114463   5.504   2.091   2.412 -3.4669  1.3208 -0.9012
 4817TP3     H214464   5.473   1.951   2.366  0.5640  0.0963 -0.2877
 4818TP3      O14465   4.290   1.029   3.386 -0.6583  0.3621  0.6808
 4818TP3     H114466   4.299   1.021   3.291  0.8251  0.3657  0.7964
 4818TP3     H214467   4.349   1.100   3.410 -0.1718 -0.3632  1.7264
 4819TP3      O14468   4.653   0.811   1.435 -0.8889  0.0723  0.7675
 4819TP3     H114469   4.563   0.807   1.468 -0.6580  1.4370  1.6476
 4819TP3     H214470   4.707   0.793   1.512 -0.3659  1.9443  0.8775
 4820TP3      O14471   5.203   5.292   3.105  0.3921  0.1120 -0.1122
 4820TP3     H114472   5.278   5.329   3.152 -0.4593 -1.4700  2.7250
 4820TP3     H214473   5.134   5.358   3.115  0.0123 -0.4980  1.5630
 4821TP3      O14474   4.997   5.345   2.783 -0.1004  0.3294  0.5412
 4821TP3     H114475   4.904   5.364   2.797 -0.3339 -0.1571 -0.2670
 4821TP3     H214476   5.023   5.405   2.713 -0.1032 -0.3062 -0.0136
 4822TP3      O14477   5.122   1.166   0.625 -0.0640 -0.7997 -0.4920
 4822TP3     H114478   5.169   1.196   0.703 -0.9292 -1.6752  0.4044
 4822TP3     H214479   5.089   1.079   0.650 -2.9347  0.1246 -0.7056
 4823TP3      O14480   4.559   1.621   3.300  0.4826  0.1185 -0.6615
 4823TP3     H114481   4.635   1.583   3.345  0.3711 -0.9026 -1.3005
 4823TP3     H214482   4.495   1.637   3.370  0.8486 -0.0936 -0.2721
 4824TP3      O14483   4.759   5.317   1.926  0.0124  0.3194  0.1129
 4824TP3     H114484   4.801   5.263   1.859 -0.4896  0.1937 -0.1007
 4824TP3     H214485   4.832   5.349   1.979  0.2223 -2.2562  1.5287
 4825TP3      O14486   5.465   0.399   2.042 -0.1850 -0.0687  0.0446
 4825TP3     H114487   5.481   0.305   2.030 -1.3277 -0.1983 -0.5749
 4825TP3     H214488   5.525   0.441   1.981 -0.0858 -0.4177 -0.0995
 4826TP3      O14489   5.614   5.770   2.840  0.0696 -0.4572  0.0585
 4826TP3     H114490   5.528   5.749   2.803  1.1362 -1.3553 -2.1127
 4826TP3     H214491   5.617   5.722   2.923 -1.1855 -1.1261 -0.2573
 4827TP3      O14492   3.947   1.106   2.294  0.2014 -0.2303 -0.0576
 4827TP3     H114493   3.964   1.062   2.378 -1.4968 -0.8678 -0.0122
 4827TP3     H214494   3.995   1.054   2.230  1.3174  0.1156  0.4608
 4828TP3      O14495   4.148   2.365   1.528  0.7202  0.0983  0.0093
 4828TP3     H114496   4.072   2.406   1.568  0.7956 -0.8712  1.1671
 4828TP3     H214497   4.202   2.439   1.499 -0.1602  0.7941  0.1108
 4829TP3      O14498   3.861   0.545   4.044 -0.0836 -0.1676  0.0898
 4829TP3     H114499   3.903   0.470   4.002  1.3549  0.6883 -0.0730
 4829TP3     H214500   3.864   0.615   3.978 -2.0930 -0.1426 -0.0444
 4830TP3      O14501   3.729   0.633   4.638  0.7570  0.2180  0.1832
 4830TP3     H114502   3.700   0.649   4.548 -3.5219  0.5969  1.3980
 4830TP3     H214503   3.767   0.545   4.635  1.5106  0.5616 -2.1228
 4831TP3      O14504   4.078   0.361   3.919 -0.1121 -0.4248 -0.1325
 4831TP3     H114505   4.027   0.281   3.930  0.2418 -0.7446 -0.7170
 4831TP3     H214506   4.121   0.350   3.834 -1.1767  1.0194 -0.8924
 4832TP3      O14507   4.185   1.685   4.761  0.2424  0.0566  0.3981
 4832TP3     H114508   4.100   1.727   4.766  0.9065  1.9904 -2.5484
 4832TP3     H214509   4.248   1.757   4.768  1.4776 -0.6802 -2.1129
 4833TP3      O14510   5.530   0.656   4.994 -0.3783 -0.5014 -0.0148
 4833TP3     H114511   5.617   0.619   5.008 -0.7054 -0.9233  0.9353
 4833TP3     H214512   5.547   0.741   4.952  0.3712 -1.7394 -2.4284
 4834TP3      O14513   4.554   0.409   4.121  0.1373 -0.4694 -0.5694
 4834TP3     H114514   4.497   0.449   4.055 -1.0671 -1.3579 -0.1083
 4834TP3     H214515   4.493   0.370   4.184  1.1767 -3.8384 -1.4649
 4835TP3      O14516   5.325   0.853   4.260 -0.9108  0.4177 -0.1045
 4835TP3     H114517   5.285   0.939   4.247  0.6408  1.3631  0.9281
 4835TP3     H214518   5.287   0.822   4.342  0.5122  1.4071  0.9852
 4836TP3      O14519   4.654   2.094   4.852  0.6663  0.1819 -0.3087
 4836TP3     H114520   4.722   2.141   4.901 -0.8100  0.2932  1.7626
 4836TP3     H214521   4.635   2.017   4.905 -0.0812 -0.4233 -1.4088
 4837TP3      O14522   3.758   2.210   4.504  0.0762  0.4266  0.3080
 4837TP3     H114523   3.742   2.290   4.555  0.8826 -0.3907  1.8876
 4837TP3     H214524   3.850   2.215   4.480  0.8098 -1.1644  2.5342
 4838TP3      O14525   3.613   0.835   3.833 -0.6949 -0.6188 -0.0111
 4838TP3     H114526   3.654   0.880   3.907  1.3417 -0.8925 -0.8972
 4838TP3     H214527   3.673   0.763   3.812 -1.0690 -0.3989 -2.0639
 4839TP3      O14528   5.364   0.428   0.064  0.3895 -0.0881 -0.1858
 4839TP3     H114529   5.302   0.464   0.126  1.1390  0.0887  0.4698
 4839TP3     H214530   5.310   0.374   0.005 -0.3026 -0.4255  0.7301
 4840TP3      O14531   4.963   1.292   5.606  0.4148 -0.6307 -0.5751
 4840TP3     H114532   4.963   1.267   5.699  0.5722 -1.3869 -0.7712
 4840TP3     H214533   4.948   1.386   5.607  2.4423 -0.2688  0.3179
 4841TP3      O14534   5.526   1.986   5.155 -0.3380  0.1477  0.1189
 4841TP3     H114535   5.562   2.004   5.242  0.6376  1.6222 -0.5428
 4841TP3     H214536   5.517   2.073   5.115 -0.0418 -0.5459 -1.5385
 4842TP3      O14537   4.312   5.942   4.690 -0.3984 -0.2489 -0.6065
 4842TP3     H114538   4.383   5.879   4.704  1.4402  0.7789 -4.0016
 4842TP3     H214539   4.327   6.010   4.755  2.4779  0.4208 -1.8107
 4843TP3      O14540   5.717   0.070   3.425  0.0553  0.5469  0.0409
 4843TP3     H114541   5.764   0.068   3.342  1.6918 -0.1008  0.9438
 4843TP3     H214542   5.687  -0.020   3.438  0.9081  0.3455  0.7273
 4844TP3      O14543   3.778   2.937   3.974 -0.5218  1.0152 -0.1790
 4844TP3     H114544   3.744   2.851   3.952  0.6401  0.7151 -0.8518
 4844TP3     H214545   3.700   2.988   3.999 -1.3100  0.0289 -0.5796
 4845TP3      O14546   5.080   0.287   5.558  0.1717  0.8681  0.3619
 4845TP3     H114547   5.084   0.330   5.473  1.1083  0.6170  0.2772
 4845TP3     H214548   5.119   0.349   5.619  0.5102  0.5905  0.4267
 4846TP3      O14549   3.072   0.885   4.723 -0.3209 -0.6412 -0.2379
 4846TP3     H114550   3.111   0.930   4.797  1.1841 -1.0916 -0.7282
 4846TP3     H214551   3.074   0.793   4.746 -0.2758 -0.7466 -0.6499
 4847TP3      O14552   3.122   1.200   5.115 -0.4100  0.2734 -0.5745
 4847TP3     H114553   3.158   1.209   5.203 -2.1448  1.4567  0.0398
 4847TP3     H214554   3.146   1.281   5.070 -0.8285  0.3236 -0.7128
 4848TP3      O14555   4.345   2.206   5.005 -0.1827  0.1324  0.1478
 4848TP3     H114556   4.396   2.188   5.084  0.0688 -1.0210 -0.2582
 4848TP3     H214557   4.404   2.254   4.947  0.2753 -0.7208 -0.1017
 4849TP3      O14558   4.164   0.735   4.850  0.4089 -0.2035  0.0883
 4849TP3     H114559   4.166   0.747   4.945  1.8807  1.2669 -0.0799
 4849TP3     H214560   4.087   0.784   4.821  0.7846  0.6042  0.4088
 4850TP3      O14561   0.106   0.378   4.161 -0.5860  0.2049 -0.4560
 4850TP3     H114562   0.061   0.306   4.117  0.0712 -1.0102  0.7525
 4850TP3     H214563   0.079   0.456   4.113 -0.7540 -0.9070 -2.2892
 4851TP3      O14564   3.662   1.321   4.797  0.5524 -0.4427 -0.3592
 4851TP3     H114565   3.606   1.247   4.821 -1.3939  1.3467  0.9588
 4851TP3     H214566   3.692   1.357   4.881  2.4629 -0.4051 -1.0065
 4852TP3      O14567   0.050   2.486   3.620 -0.1214 -0.2181  0.4642
 4852TP3     H114568   0.067   2.392   3.612 -2.4741 -0.6610  0.0471
 4852TP3     H214569  -0.045   2.493   3.624  0.0206  2.1130  1.2664
 4853TP3      O14570   4.113   1.460   4.294  0.1659 -0.0042  0.0275
 4853TP3     H114571   4.182   1.498   4.348 -0.0374 -0.2576  0.4711
 4853TP3     H214572   4.151   1.456   4.206  1.3651 -1.7323  0.5704
 4854TP3      O14573   5.519   0.642   4.589  0.5966 -0.0867  0.1333
 4854TP3     H114574   5.514   0.569   4.527 -2.2004 -0.6622  0.9290
 4854TP3     H214575   5.490   0.718   4.539 -0.7799 -0.3838  0.4434
 4855TP3      O14576   5.904   0.934   4.826  0.1796  0.0125  0.1982
 4855TP3     H114577   5.995   0.904   4.819  0.9590  0.3496  5.0665
 4855TP3     H214578   5.862   0.903   4.746  4.4787 -0.2632 -2.2634
 4856TP3      O14579   4.013   0.461   5.101 -0.4246  0.0871 -0.6129
 4856TP3     H114580   4.082   0.460   5.035 -0.5918 -1.4161 -0.8116
 4856TP3     H214581   3.985   0.369   5.106 -3.5603  0.8758 -1.7511
 4857TP3      O14582   4.440   1.511   5.200 -0.0103  0.3542  0.1431
 4857TP3     H114583   4.536   1.507   5.205  0.0110  0.9859  0.3683
 4857TP3     H214584   4.417   1.454   5.127  0.5890  0.7240 -0.3410
 4858TP3      O14585  -0.006   1.416   4.873  0.1040 -0.4019  0.7161
 4858TP3     H114586   0.009   1.352   4.943 -0.7849 -0.7463  0.6033
 4858TP3     H214587   0.050   1.387   4.801  0.5692 -0.3889  1.0660
 4859TP3      O14588   4.337   5.928   4.154  0.0024 -0.1205 -0.5026
 4859TP3     H114589   4.358   5.860   4.218  0.3147  2.5025  2.4313
 4859TP3     H214590   4.408   5.925   4.090  1.3357 -0.9743  0.9503
 4860TP3      O14591   3.974   0.987   4.232  0.5342 -0.6256 -0.0945
 4860TP3     H114592   4.057   0.969   4.189  0.1527 -1.1044 -0.6481
 4860TP3     H214593   3.935   0.901   4.247  0.3862 -0.4349  0.6713
 4861TP3      O14594   5.753   0.644   3.758 -0.0959  0.2671  0.5280
 4861TP3     H114595   5.788   0.600   3.681 -0.8819 -0.8209  0.7752
 4861TP3     H214596   5.716   0.726   3.724 -1.4061 -0.6940 -0.4308
 4862TP3      O14597   5.442   1.782   5.502  0.1062  0.1645  0.3587
 4862TP3     H114598   5.447   1.874   5.527  0.1676  0.8453 -1.9151
 4862TP3     H214599   5.457   1.734   5.584  0.3457  2.1498  1.5517
 4863TP3      O14600   3.914   5.385   5.047  0.2761  0.0183 -0.2096
 4863TP3     H114601   3.887   5.474   5.071  0.3216 -0.4932  1.9315
 4863TP3     H214602   3.925   5.388   4.952  0.6502  2.4067 -0.1465
 4864TP3      O14603   5.886   2.518   4.504 -0.2528 -0.1597 -0.6951
 4864TP3     H114604   5.832   2.555   4.574 -0.6039 -0.6126 -0.7163
 4864TP3     H214605   5.891   2.587   4.439  0.9708  0.6594  0.2368
 4865TP3      O14606   5.115   2.352   4.544 -0.5735  0.0434 -0.5559
 4865TP3     H114607   5.180   2.297   4.589 -0.9375 -0.3220 -0.4791
 4865TP3     H214608   5.168   2.412   4.491 -0.0887  0.8829  0.7949
 4866TP3      O14609   4.691   1.187   3.234 -0.6693 -0.7385  0.8482
 4866TP3     H114610   4.689   1.097   3.202  0.8183 -0.7729  0.7821
 4866TP3     H214611   4.606   1.199   3.276 -2.1386 -1.1576 -1.8141
 4867TP3      O14612   5.705   5.674   4.859  0.3447 -0.0134 -0.3728
 4867TP3     H114613   5.677   5.653   4.770 -1.3626  4.3921 -1.1543
 4867TP3     H214614   5.655   5.615   4.915 -0.8864 -0.8195 -2.2454
 4868TP3      O14615   5.305   2.480   4.411  0.0937 -0.0487  0.0541
 4868TP3     H114616   5.381   2.422   4.413 -0.2109 -0.5221 -1.4217
 4868TP3     H214617   5.328   2.549   4.349 -0.2334  0.4545  0.4807
 4869TP3      O14618   4.233   0.634   4.281  0.0222  0.0009  0.0488
 4869TP3     H114619   4.193   0.669   4.360 -0.3609 -0.3899  0.0277
 4869TP3     H214620   4.187   0.678   4.209  0.1217  0.0839  0.0349
 4870TP3      O14621   5.703   0.159   5.340  0.4077 -0.1935 -0.3116
 4870TP3     H114622   5.707   0.197   5.428  1.0914 -0.8323 -0.0542
 4870TP3     H214623   5.614   0.125   5.333  1.4719 -3.9526  1.8147
 4871TP3      O14624   5.440   1.333   5.744  0.0060 -0.2933 -0.2156
 4871TP3     H114625   5.413   1.420   5.772 -0.4571 -0.8247  1.0901
 4871TP3     H214626   5.384   1.314   5.669  1.7772  1.4598 -2.0941
 4872TP3      O14627   4.739   0.012   5.681  0.2795 -0.4827 -0.2921
 4872TP3     H114628   4.707   0.014   5.591 -1.2590 -1.6134  0.1851
 4872TP3     H214629   4.831   0.038   5.674 -0.1857  0.8892 -1.9828
 4873TP3      O14630   4.754   0.578   4.218 -0.3359 -0.1403 -0.1988
 4873TP3     H114631   4.786   0.611   4.134 -0.8675  2.5446  0.5538
 4873TP3     H214632   4.703   0.501   4.195  1.3729 -0.8278 -2.0633
 4874TP3      O14633   4.710   0.993   4.428  0.1468 -0.1894  0.2677
 4874TP3     H114634   4.791   1.038   4.453  1.2345 -1.4913 -0.7021
 4874TP3     H214635   4.718   0.906   4.468 -1.3347  0.0261  1.0968
 4875TP3      O14636   2.840   2.670   4.723 -0.1601  0.2294 -0.0070
 4875TP3     H114637   2.872   2.684   4.812 -1.4498  0.5638  0.4268
 4875TP3     H214638   2.848   2.576   4.710  0.1508  0.1918  0.4248
 4876TP3      O14639   4.540   0.283   3.361 -0.1954  0.4542 -0.2817
 4876TP3     H114640   4.476   0.231   3.312 -0.7215  2.4380 -1.8560
 4876TP3     H214641   4.494   0.308   3.442 -0.3821 -0.4649 -0.1001
 4877TP3      O14642   5.987   0.403   0.974  0.9932 -0.2549  0.3025
 4877TP3     H114643   5.897   0.397   0.944  1.4018  0.3118 -1.1321
 4877TP3     H214644   6.030   0.324   0.938  0.8832 -1.0008  1.7446
 4878TP3      O14645   4.695   0.627   3.556  0.0225  0.4552 -0.1353
 4878TP3     H114646   4.670   0.619   3.647  1.4772  0.1303  0.2653
 4878TP3     H214647   4.718   0.720   3.545  2.5173  0.0034  0.6192
 4879TP3      O14648   4.163   0.779   3.377 -0.4140  0.0328  0.1820
 4879TP3     H114649   4.214   0.860   3.383 -0.1818 -0.0383 -0.7279
 4879TP3     H214650   4.081   0.806   3.336 -1.3213  0.2273  2.0206
 4880TP3      O14651   5.201   1.532   4.842  0.0195 -0.0826  0.1507
 4880TP3     H114652   5.244   1.531   4.757  1.1960  3.2120  0.5916
 4880TP3     H214653   5.112   1.561   4.824 -0.3837 -1.3993 -0.1184
 4881TP3      O14654   4.954   1.801   4.198  0.3261 -0.3129  0.1002
 4881TP3     H114655   4.919   1.717   4.169 -1.0726  0.4664 -0.6090
 4881TP3     H214656   5.007   1.832   4.125 -0.9470  0.3874 -0.5660
 4882TP3      O14657   4.911   0.628   4.684  0.5483  0.7811 -0.1649
 4882TP3     H114658   4.870   0.646   4.600 -0.2839 -0.1739  0.0209
 4882TP3     H214659   4.864   0.552   4.718  2.2590 -0.1538  0.2192
 4883TP3      O14660   5.909   1.502   5.484 -0.0408  0.7720 -0.5749
 4883TP3     H114661   5.855   1.452   5.545  1.2873 -0.7613 -0.5934
 4883TP3     H214662   5.853   1.514   5.407 -0.5471 -0.2752 -0.3873
 4884TP3      O14663   4.652   0.094   3.819 -0.5598 -0.1095 -0.1801
 4884TP3     H114664   4.652   0.164   3.755  0.8931 -1.0110 -1.2054
 4884TP3     H214665   4.728   0.111   3.874 -1.9015  0.7737  1.5032
 4885TP3      O14666   5.151   1.157   4.916 -0.2987  0.1721  0.4320
 4885TP3     H114667   5.176   1.236   4.966 -0.7195  1.2520 -1.0110
 4885TP3     H214668   5.056   1.161   4.911 -0.2087  0.6333 -1.2968
 4886TP3      O14669   5.243   1.875   5.336  0.3632 -0.6427 -0.0599
 4886TP3     H114670   5.248   1.832   5.251  2.1271  0.2285 -0.4535
 4886TP3     H214671   5.326   1.853   5.378 -0.0195 -0.1364  0.9729
 4887TP3      O14672   5.952   1.833   4.459 -0.1598  0.2988  0.4572
 4887TP3     H114673   5.946   1.823   4.554 -1.8825  2.2240  0.6023
 4887TP3     H214674   5.979   1.923   4.445  2.3710 -0.5547 -0.9191
 4888TP3      O14675   4.493   0.316   5.383  0.1941  0.5588  0.3226
 4888TP3     H114676   4.585   0.325   5.407  0.3955  0.5203 -0.4066
 4888TP3     H214677   4.489   0.346   5.292 -0.6958  1.5192  0.6574
 4889TP3      O14678   4.391   1.399   4.184 -0.0919  0.8065 -0.1168
 4889TP3     H114679   4.418   1.352   4.106  1.5082  1.0127  0.2781
 4889TP3     H214680   4.341   1.335   4.235  0.1987  0.2013 -0.5838
 4890TP3      O14681   4.087   1.663   3.724 -0.7086 -0.1742 -0.6789
 4890TP3     H114682   4.135   1.710   3.792 -1.2831  1.2105 -1.2064
 4890TP3     H214683   3.995   1.685   3.739 -1.2345 -2.5615  0.1400
 4891TP3      O14684   4.902   5.952   3.512  0.2561  0.1423 -0.1566
 4891TP3     H114685   4.839   5.913   3.573 -2.1761 -0.1501 -2.6503
 4891TP3     H214686   4.967   5.883   3.499 -0.8882 -0.9802 -0.1985
 4892TP3      O14687   4.460   1.883   4.941 -0.3704 -0.1672 -0.3672
 4892TP3     H114688   4.455   1.842   4.855 -2.2844 -3.1927  1.0109
 4892TP3     H214689   4.383   1.939   4.946 -1.7049 -1.9611  0.1858
 4893TP3      O14690   5.215   1.540   4.463  0.1060  0.1619  0.4205
 4893TP3     H114691   5.147   1.526   4.528 -0.3599  0.4230 -0.0013
 4893TP3     H214692   5.296   1.547   4.514 -0.0171 -1.2625  0.8416
 4894TP3      O14693   4.631   0.327   3.675 -0.1921  0.2334 -0.0013
 4894TP3     H114694   4.701   0.383   3.707 -1.3825  1.3287  0.7774
 4894TP3     H214695   4.555   0.385   3.668 -1.9797 -1.5913  2.5864
 4895TP3      O14696   4.550   5.586   5.736 -0.0211  0.3778  0.3210
 4895TP3     H114697   4.534   5.671   5.696 -0.0216 -0.3467 -1.2784
 4895TP3     H214698   4.595   5.535   5.669  1.1290 -0.4852  1.6964
 4896TP3      O14699   4.281   5.711   3.828  0.3639  0.3192  0.2017
 4896TP3     H114700   4.243   5.630   3.795 -1.3875  0.7580  1.0064
 4896TP3     H214701   4.364   5.720   3.781  0.8823 -2.1888  0.5149
 4897TP3      O14702   4.941   1.562   5.686  0.2284 -0.8744 -0.0371
 4897TP3     H114703   4.968   1.548   5.777  0.3445  3.9747  0.9599
 4897TP3     H214704   5.009   1.618   5.650 -1.7274  0.4612 -1.8472
 4898TP3      O14705   3.967   2.152   4.695  0.0093 -0.2144  0.2020
 4898TP3     H114706   3.989   2.219   4.760 -0.7829 -0.1616  0.4264
 4898TP3     H214707   3.993   2.189   4.611 -0.8472  0.5753  0.2732
 4899TP3      O14708   5.447   5.802   0.243  0.7159 -0.4782  0.0648
 4899TP3     H114709   5.455   5.814   0.337  0.9451 -0.1278 -0.0012
 4899TP3     H214710   5.399   5.879   0.213 -0.2669 -1.0863  0.0365
 4900TP3      O14711   5.483   1.929   4.513  0.3123 -0.3503 -0.1203
 4900TP3     H114712   5.417   1.871   4.551  0.7193 -0.2260  0.8194
 4900TP3     H214713   5.566   1.886   4.534  0.5537 -0.1914 -0.7488
 4901TP3      O14714   4.480   5.739   5.186 -0.2303 -0.3025  0.1182
 4901TP3     H114715   4.517   5.802   5.247  0.1131 -0.2014 -0.1909
 4901TP3     H214716   4.461   5.662   5.239  1.5613 -0.8068  0.0685
 4902TP3      O14717   5.057   0.013   4.176 -0.3613 -0.1496  0.3726
 4902TP3     H114718   5.056   0.020   4.080 -1.6310 -0.1670  0.3693
 4902TP3     H214719   5.035   0.101   4.207 -0.1042 -0.1825  0.6557
 4903TP3      O14720   4.926   1.165   4.232 -0.4182  0.6768 -0.0142
 4903TP3     H114721   4.970   1.196   4.311 -0.1391  2.4760 -0.8351
 4903TP3     H214722   4.875   1.240   4.201 -2.0525 -0.5809 -0.5130
 4904TP3      O14723   4.452   5.953   4.453 -0.1327  0.0663  0.0917
 4904TP3     H114724   4.415   5.925   4.536 -0.9754  1.0510  0.0660
 4904TP3     H214725   4.477   5.871   4.409  1.3937 -0.4399  1.7561
 4905TP3      O14726   4.949   0.329   4.871 -0.0965  0.3789  0.3904
 4905TP3     H114727   4.927   0.289   4.787 -2.0349 -3.0021  2.2882
 4905TP3     H214728   4.870   0.378   4.896 -0.1482  0.0034  0.9691
 4906TP3      O14729   5.261   0.889   4.547  0.2785 -0.0612  0.3040
 4906TP3     H114730   5.327   0.957   4.562  0.7943 -0.8760  2.0161
 4906TP3     H214731   5.254   0.843   4.631  0.4747 -2.5801 -0.9484
 4907TP3      O14732   4.911   1.606   4.874 -0.0158 -0.2596 -0.0192
 4907TP3     H114733   4.820   1.615   4.844  0.5822  3.2495 -1.2605
 4907TP3     H214734   4.911   1.643   4.962  0.5031  1.8842 -0.8579
 4908TP3      O14735   4.479   0.504   5.171 -0.0671 -0.2415  0.4921
 4908TP3     H114736   4.428   0.529   5.094 -1.0578 -0.4294  1.0551
 4908TP3     H214737   4.569   0.498   5.141 -0.3619  0.2474 -0.5152
 4909TP3      O14738   4.402   1.801   4.692  0.3183 -0.6183 -0.7345
 4909TP3     H114739   4.353   1.755   4.623  0.9801  0.0156 -1.6652
 4909TP3     H214740   4.456   1.865   4.644  1.8438 -1.0983  0.2592
 4910TP3      O14741   5.190   5.997   3.872 -0.8278  0.0272 -0.6640
 4910TP3     H114742   5.204   6.030   3.783  3.2557  1.1920  0.1850
 4910TP3     H214743   5.232   5.911   3.873 -2.3735 -0.7488 -0.2482
 4911TP3      O14744   3.787   0.219   4.820  0.3565 -0.4720  0.0135
 4911TP3     H114745   3.785   0.166   4.740 -0.9646 -1.5214  0.7011
 4911TP3     H214746   3.733   0.295   4.800 -0.2092 -0.8744 -0.0102
 4912TP3      O14747   5.331   0.516   4.854  0.3409 -0.3057  0.6054
 4912TP3     H114748   5.410   0.570   4.860  0.2129 -0.1934  1.3570
 4912TP3     H214749   5.302   0.526   4.763  0.2730  0.9584  0.7558
 4913TP3      O14750   5.035   0.852   5.026  0.1575 -0.4693  0.2695
 4913TP3     H114751   4.958   0.822   4.977  0.7039  2.3102 -2.6654
 4913TP3     H214752   5.107   0.846   4.964  1.8027 -0.5477  2.1029
 4914TP3      O14753   4.776   5.891   5.107 -0.1843 -0.1151  0.3964
 4914TP3     H114754   4.695   5.841   5.103 -1.6059  1.8155  2.2945
 4914TP3     H214755   4.837   5.834   5.153 -1.2608 -0.7131  1.1344
 4915TP3      O14756   4.723   1.333   4.158 -0.1743  0.5049  0.0907
 4915TP3     H114757   4.689   1.258   4.206 -0.8194  1.1616  0.6738
 4915TP3     H214758   4.665   1.405   4.181  0.9783  1.4037  0.2702
 4916TP3      O14759   0.295   0.632   4.089  0.1596 -0.3738 -0.5764
 4916TP3     H114760   0.278   0.716   4.132  2.1146 -0.6885  0.9384
 4916TP3     H214761   0.263   0.644   4.000 -3.3078  0.6067  0.6234
 4917TP3      O14762   5.410   5.802   4.886  0.1259 -0.0405 -0.2244
 4917TP3     H114763   5.469   5.877   4.877 -0.1541  0.1355 -0.6013
 4917TP3     H214764   5.322   5.841   4.888 -0.0386 -0.3771 -0.7040
 4918TP3      O14765   4.657   1.400   3.598 -0.2582 -0.6888  0.2344
 4918TP3     H114766   4.670   1.473   3.658  0.3488 -0.5770 -0.0264
 4918TP3     H214767   4.713   1.420   3.523 -1.2135 -0.6928 -0.4959
 4919TP3      O14768   5.160   1.766   5.077 -1.3155  0.4687  0.2133
 4919TP3     H114769   5.236   1.757   5.018  0.0950 -0.0374  2.0019
 4919TP3     H214770   5.109   1.837   5.040 -0.1829  0.5501 -1.3030
 4920TP3      O14771   5.918   0.517   3.592  0.1185  0.0709  0.3605
 4920TP3     H114772   5.919   0.572   3.514  1.2603  1.0924  1.0598
 4920TP3     H214773   5.889   0.431   3.560 -0.1000  0.6368 -1.0499
 4921TP3      O14774   4.553   0.347   4.448 -0.0222  0.0505 -0.1358
 4921TP3     H114775   4.522   0.437   4.457 -0.1955  0.0637 -0.7928
 4921TP3     H214776   4.544   0.310   4.535  0.1194  0.6916  0.1620
 4922TP3      O14777   5.545   0.030   4.911 -0.0489  0.0709 -0.1707
 4922TP3     H114778   5.575   0.117   4.887 -1.2301  0.0819 -1.7136
 4922TP3     H214779   5.600   0.006   4.986 -0.6020  2.6851  1.2186
 4923TP3      O14780   3.566   1.531   5.439 -0.0117 -0.3606  0.6516
 4923TP3     H114781   3.598   1.576   5.517 -3.6449  3.5734  0.2876
 4923TP3     H214782   3.604   1.580   5.366 -1.2010 -0.1099  0.1634
 4924TP3      O14783   4.705   1.803   5.890 -0.2802 -0.0250  0.0458
 4924TP3     H114784   4.648   1.730   5.867 -3.4350  1.9885  0.8261
 4924TP3     H214785   4.728   1.787   5.982 -2.4631  0.7427  0.7893
 4925TP3      O14786   4.919   1.252   4.901 -0.0772  0.2001 -0.0844
 4925TP3     H114787   4.875   1.197   4.837 -1.0090  0.3308  0.4245
 4925TP3     H214788   4.848   1.292   4.951  0.4891  2.7324 -1.1430
 4926TP3      O14789   5.379   1.140   4.482 -0.5212  0.7856 -0.7081
 4926TP3     H114790   5.344   1.158   4.395  1.4373 -0.7646 -1.9132
 4926TP3     H214791   5.474   1.143   4.470 -0.1996 -0.6071  1.1082
 4927TP3      O14792   4.863   0.721   5.444 -0.0730 -0.2348  0.1510
 4927TP3     H114793   4.778   0.731   5.402  0.3765  3.2193 -0.2139
 4927TP3     H214794   4.852   0.761   5.531  0.8952 -0.7736  0.5487
 4928TP3      O14795   4.670   1.026   5.214  0.3531 -0.1731 -0.1672
 4928TP3     H114796   4.742   1.030   5.277  2.3378  0.2786 -2.3397
 4928TP3     H214797   4.639   0.936   5.219  1.3905 -0.5160  0.5004
 4929TP3      O14798   5.031   0.906   4.384 -0.8121  0.1388 -0.0840
 4929TP3     H114799   5.092   0.897   4.457 -0.4792 -2.6925 -0.6141
 4929TP3     H214800   4.975   0.981   4.409  0.0235  0.0052  2.4942
 4930TP3      O14801   4.004   1.356   5.120  0.7240  0.1987  0.3278
 4930TP3     H114802   3.920   1.395   5.093  0.2922  1.1135  2.7098
 4930TP3     H214803   3.997   1.350   5.215  3.7113  1.0938  0.6810
 4931TP3      O14804   5.121   5.405   4.988 -0.0008 -0.5422  0.1408
 4931TP3     H114805   5.187   5.464   5.024  1.2363 -0.4758 -2.0630
 4931TP3     H214806   5.038   5.439   5.021  0.8010  1.5059  0.1989
 4932TP3      O14807   4.962   1.458   3.818  0.4435 -0.3943 -0.0499
 4932TP3     H114808   4.888   1.414   3.859 -1.7520  2.9241 -0.0711
 4932TP3     H214809   4.994   1.519   3.885  1.4524  0.0663 -0.9205
 4933TP3      O14810   4.648   0.945   4.104  0.6673  0.0774 -0.7088
 4933TP3     H114811   4.705   0.959   4.179  2.0977 -2.1178 -1.2548
 4933TP3     H214812   4.597   0.867   4.127 -0.9978  1.0821 -0.8796
 4934TP3      O14813   4.306   0.343   4.269 -0.2492  0.6855 -0.0324
 4934TP3     H114814   4.260   0.427   4.260 -2.1325 -0.2326  0.4432
 4934TP3     H214815   4.257   0.297   4.338 -0.2608 -1.4350 -1.3862
 4935TP3      O14816   5.235   1.873   4.595 -0.0867 -0.3726 -0.5624
 4935TP3     H114817   5.191   1.822   4.664  0.7602 -0.8107 -0.3352
 4935TP3     H214818   5.163   1.910   4.544 -0.7799 -2.8400 -1.5331
 4936TP3      O14819   4.795   1.599   5.248  0.1668  0.6615 -0.9277
 4936TP3     H114820   4.772   1.587   5.340 -0.6039  1.9739 -0.9194
 4936TP3     H214821   4.743   1.675   5.220  0.0713  0.0299 -2.5655
 4937TP3      O14822   5.763   0.403   4.438 -0.2673 -0.1627 -0.2193
 4937TP3     H114823   5.756   0.482   4.385 -0.6307  0.9199  1.3633
 4937TP3     H214824   5.717   0.336   4.388 -0.7048  0.8363 -1.1920
 4938TP3      O14825   3.926   1.687   5.119 -0.7516 -0.1693  0.2542
 4938TP3     H114826   4.014   1.684   5.157 -0.7154 -1.6249  0.1297
 4938TP3     H214827   3.927   1.762   5.060  1.1190 -1.4204 -1.3987
 4939TP3      O14828   4.326   0.575   0.048  0.4936  0.0080  0.0174
 4939TP3     H114829   4.247   0.539   0.007 -1.0416  0.9781  1.9277
 4939TP3     H214830   4.357   0.641  -0.013 -0.1298 -0.4371 -0.7980
 4940TP3      O14831   5.078   1.564   5.246 -0.2241  0.3228  0.6295
 4940TP3     H114832   5.105   1.627   5.179 -0.5164 -0.9965 -0.7928
 4940TP3     H214833   4.983   1.555   5.232 -0.0118 -1.2265  0.0729
 4941TP3      O14834   4.910   5.886   4.780  0.5985 -0.0783  0.0517
 4941TP3     H114835   4.931   5.891   4.873  1.0945  1.4784 -0.1198
 4941TP3     H214836   4.976   5.827   4.744  0.8907 -0.0596  0.5508
 4942TP3      O14837   4.801   0.702   5.913  0.0713  0.0627 -0.4202
 4942TP3     H114838   4.795   0.783   5.963  1.5577 -0.3660  0.4854
 4942TP3     H214839   4.722   0.653   5.937  1.1693 -0.5519  2.3234
 4943TP3      O14840   3.661   0.978   4.086  0.7035 -0.5699  0.9060
 4943TP3     H114841   3.619   1.064   4.074  0.1307 -1.0372 -0.6878
 4943TP3     H214842   3.649   0.959   4.179 -1.4424 -0.0588  0.7846
 4944TP3      O14843   0.491   5.717   5.500  0.1473  0.1916  0.5242
 4944TP3     H114844   0.411   5.769   5.498  0.0312  0.0701  1.3681
 4944TP3     H214845   0.466   5.637   5.547 -0.1488 -1.4723 -2.2821
 4945TP3      O14846   4.480   1.633   4.283  0.0440 -0.2226  0.3434
 4945TP3     H114847   4.522   1.627   4.369  0.3973 -0.0980  0.1851
 4945TP3     H214848   4.470   1.543   4.255  3.1800 -0.2941 -1.0175
 4946TP3      O14849   5.073   0.174   5.063 -0.0901 -0.3907 -0.7022
 4946TP3     H114850   5.161   0.209   5.055  0.1236 -0.9607 -0.9233
 4946TP3     H214851   5.032   0.191   4.978 -0.1234 -0.3152 -0.6715
 4947TP3      O14852   3.515   1.920   4.674 -0.1786 -0.2111  0.3494
 4947TP3     H114853   3.557   1.835   4.665 -0.6952 -0.2914 -1.8977
 4947TP3     H214854   3.578   1.972   4.725  0.7988 -1.4894  0.5105
 4948TP3      O14855   4.404   5.571   4.832  0.3861  0.2660 -0.1090
 4948TP3     H114856   4.330   5.534   4.785  0.2257  0.0486  0.3080
 4948TP3     H214857   4.367   5.600   4.915  0.8041 -0.0089  0.1741
 4949TP3      O14858   5.166   1.277   4.658 -0.0513 -0.2667  0.3758
 4949TP3     H114859   5.136   1.251   4.745 -1.3506  2.5695  0.9018
 4949TP3     H214860   5.250   1.234   4.647  0.3472 -0.3754  3.2250
 4950TP3      O14861   4.193   5.295   4.240  0.2168  0.2754  1.1531
 4950TP3     H114862   4.145   5.224   4.281  0.0155 -0.7437 -0.7194
 4950TP3     H214863   4.247   5.332   4.310 -1.0946 -0.4651  2.6024
 4951TP3      O14864   4.339   1.115   4.657  0.1473 -0.0475  0.2801
 4951TP3     H114865   4.317   1.091   4.747 -0.3934 -1.7059 -0.2536
 4951TP3     H214866   4.415   1.172   4.666 -1.0651  1.4454  1.8803
 4952TP3      O14867   5.421   1.516   4.641 -0.6556 -0.0470  0.0788
 4952TP3     H114868   5.481   1.442   4.629 -2.8965 -2.0844  0.5250
 4952TP3     H214869   5.468   1.577   4.697  0.6259 -2.0173  1.2610
 4953TP3      O14870   4.264   1.703   5.983  0.1897 -0.7490 -0.3046
 4953TP3     H114871   4.285   1.766   5.914  0.9024  0.5578  1.0442
 4953TP3     H214872   4.174   1.676   5.965 -0.4544  1.3298 -0.4445
 4954TP3      O14873   5.222   0.895   4.830  0.2421  0.0494 -0.1533
 4954TP3     H114874   5.314   0.871   4.819  0.5917  1.4417 -0.4168
 4954TP3     H214875   5.224   0.986   4.861 -1.0480  0.2049 -0.4491
 4955TP3      O14876   4.583   1.574   5.773  0.1483 -0.4752  0.5847
 4955TP3     H114877   4.566   1.480   5.764 -0.6655 -0.2525 -0.3405
 4955TP3     H214878   4.496   1.614   5.775  0.3987  0.6536 -3.5638
 4956TP3      O14879   5.213   0.749   4.015 -0.3968 -0.6186 -0.0699
 4956TP3     H114880   5.166   0.830   4.033 -2.1094 -1.4031 -0.7538
 4956TP3     H214881   5.280   0.743   4.083  1.2319  2.4000 -1.2182
 4957TP3      O14882   5.450   0.704   3.695 -0.2860  0.0719 -0.0340
 4957TP3     H114883   5.506   0.782   3.702  0.6508 -0.5322 -0.5558
 4957TP3     H214884   5.390   0.724   3.623 -1.1277  0.9475  0.8871
 4958TP3      O14885   5.016   2.135   4.756  0.1557  0.2396 -0.7505
 4958TP3     H114886   5.040   2.209   4.811 -0.4871 -0.2468  0.2212
 4958TP3     H214887   5.021   2.168   4.666  0.7386  1.1881 -0.3798
 4959TP3      O14888   3.553   0.654   5.194  0.4374 -0.3831  0.1772
 4959TP3     H114889   3.545   0.559   5.190  1.2064 -0.4059 -1.3913
 4959TP3     H214890   3.612   0.670   5.267  2.7386 -1.3223 -1.3580
 4960TP3      O14891   3.905   0.393   4.533 -0.1190  0.0423 -0.0123
 4960TP3     H114892   3.999   0.396   4.550 -0.3691  1.4045  1.3731
 4960TP3     H214893   3.883   0.300   4.536  1.1391 -0.2770 -0.1119
 4961TP3      O14894   5.159   0.549   4.254 -0.0815 -0.0064 -0.1157
 4961TP3     H114895   5.147   0.644   4.248 -2.9198 -0.3827 -3.3162
 4961TP3     H214896   5.079   0.517   4.294 -1.0587 -1.2143 -2.7649
 4962TP3      O14897   5.612   0.994   5.684 -0.2707 -0.3909  0.0815
 4962TP3     H114898   5.582   1.055   5.616  0.4257  0.5689  0.5991
 4962TP3     H214899   5.540   0.932   5.695 -1.1195  0.5044 -0.2760
 4963TP3      O14900   3.401   1.190   4.910  0.0102  0.3599  0.4722
 4963TP3     H114901   3.352   1.211   4.830 -1.7169  1.2997  1.7031
 4963TP3     H214902   3.356   1.114   4.946 -0.7033  1.3485  1.7256
 4964TP3      O14903   4.078   1.964   4.115 -0.3703  0.8330  0.0639
 4964TP3     H114904   4.074   2.059   4.105 -1.3507  0.6502 -1.5940
 4964TP3     H214905   3.989   1.938   4.140 -0.2248  0.2990  0.0561
 4965TP3      O14906   3.802   1.490   5.011  0.0092  0.0673  1.0714
 4965TP3     H114907   3.725   1.504   5.064 -0.1855  0.3754  0.7130
 4965TP3     H214908   3.851   1.572   5.016 -1.1678  0.9863 -1.0888
 4966TP3      O14909   3.626   1.123   5.624  0.4142 -0.1903  0.6468
 4966TP3     H114910   3.579   1.135   5.706  0.9841  0.8291  0.8454
 4966TP3     H214911   3.685   1.198   5.619  1.1614 -0.8074 -0.1716
 4967TP3      O14912   3.736   1.760   4.772  0.4148  0.2664 -1.1214
 4967TP3     H114913   3.760   1.673   4.740  0.9805  0.2023 -0.5310
 4967TP3     H214914   3.675   1.743   4.844  0.3437  0.3683 -1.1568
 4968TP3      O14915   4.205   0.813   5.495 -0.5751  0.8901 -0.0820
 4968TP3     H114916   4.238   0.885   5.442 -1.8555  0.6454 -1.2874
 4968TP3     H214917   4.231   0.834   5.584  0.0436  2.2596 -0.5656
 4969TP3      O14918   5.530   1.048   5.408  0.4807  0.4486 -0.1515
 4969TP3     H114919   5.484   1.079   5.330 -0.2003  0.2473  0.1617
 4969TP3     H214920   5.594   0.986   5.374  0.4023  0.5992 -0.5846
 4970TP3      O14921   4.559   1.208   4.347 -0.0657  0.2890  0.0446
 4970TP3     H114922   4.599   1.126   4.378 -0.1222  0.4114  0.4479
 4970TP3     H214923   4.465   1.188   4.343  0.1164 -0.3686 -2.0294
 4971TP3      O14924   5.855   0.789  -0.004 -0.4515 -0.5279  0.4988
 4971TP3     H114925   5.781   0.733  -0.027  0.2694 -1.3304  0.0555
 4971TP3     H214926   5.825   0.840   0.071 -1.5608 -0.5905  0.1124
 4972TP3      O14927   4.122   1.969   5.572  0.2662 -0.7798  0.6744
 4972TP3     H114928   4.101   2.009   5.488  2.1314  2.5445  1.6300
 4972TP3     H214929   4.037   1.963   5.617 -0.3832 -0.0269 -0.4077
 4973TP3      O14930   4.412   0.860   5.967  0.2202  0.8304  0.1253
 4973TP3     H114931   4.337   0.919   5.954 -1.1947 -1.1336 -1.1671
 4973TP3     H214932   4.408   0.835   6.059 -1.4680 -0.1460 -0.1741
 4974TP3      O14933   4.619   1.157   4.973  0.0984  0.4766  0.0142
 4974TP3     H114934   4.634   1.245   5.007 -1.3767  0.4537  0.7780
 4974TP3     H214935   4.639   1.099   5.046 -1.3794  0.3272  0.3197
 4975TP3      O14936   3.885   1.027   3.921  0.1065  0.8778 -0.0715
 4975TP3     H114937   3.833   0.986   3.989  0.0591 -2.2335 -1.8101
 4975TP3     H214938   3.839   1.007   3.839  3.1274 -0.7471 -1.5543
 4976TP3      O14939   4.311   1.903   5.790 -0.5366  0.1563  0.0337
 4976TP3     H114940   4.353   1.985   5.816 -2.7083  1.2646  0.1992
 4976TP3     H214941   4.237   1.929   5.736 -1.5508 -1.6912  0.4445
 4977TP3      O14942   4.114   0.161   5.349  0.5007 -0.3909  0.0875
 4977TP3     H114943   4.184   0.174   5.413 -1.0490  0.7534  1.6491
 4977TP3     H214944   4.060   0.240   5.357 -0.9385 -1.2101 -1.1094
 4978TP3      O14945   5.775   0.548   4.194 -0.1183 -0.5386  0.2140
 4978TP3     H114946   5.770   0.512   4.106  0.6875 -2.4862  0.9259
 4978TP3     H214947   5.742   0.638   4.185 -1.1158 -1.0593 -1.8377
 4979TP3      O14948   5.721   2.833   5.162 -0.2398  0.3899  0.2180
 4979TP3     H114949   5.668   2.780   5.221 -1.5791  0.1052 -1.1726
 4979TP3     H214950   5.719   2.920   5.201 -1.0078  0.1791  0.6815
 4980TP3      O14951   5.371   1.650   4.053  0.2314 -0.1698  0.1837
 4980TP3     H114952   5.393   1.729   4.102 -1.8051  0.5726 -0.0182
 4980TP3     H214953   5.328   1.593   4.117 -2.3850  0.7773 -0.6440
 4981TP3      O14954   4.353   1.082   4.921 -1.1544  0.1500  0.3990
 4981TP3     H114955   4.427   1.139   4.944 -1.1135 -0.4332  1.8028
 4981TP3     H214956   4.277   1.126   4.959 -1.3389  0.0219  0.1817
 4982TP3      O14957   4.564   0.579   5.611  0.1834  0.0303 -0.8521
 4982TP3     H114958   4.488   0.562   5.555  1.4393  0.9521 -2.9588
 4982TP3     H214959   4.560   0.673   5.628 -1.1720 -0.4691  2.2650
 4983TP3      O14960   5.094   0.616   3.791  0.2597  0.0625  0.2484
 4983TP3     H114961   5.100   0.674   3.715  0.1833 -0.3209 -0.0584
 4983TP3     H214962   5.138   0.663   3.861 -1.5029  1.3403  0.5368
 4984TP3      O14963   5.808   1.209   4.760 -0.1132 -0.5267 -0.5277
 4984TP3     H114964   5.853   1.277   4.808  1.1321 -0.4617 -1.7342
 4984TP3     H214965   5.848   1.127   4.790  0.5300 -0.4990 -1.2749
 4985TP3      O14966   3.597   2.655   5.356 -0.6573 -0.0591 -0.0242
 4985TP3     H114967   3.537   2.587   5.387  0.9008 -0.9413  1.1676
 4985TP3     H214968   3.680   2.611   5.345  0.5766  1.7701  1.3722
 4986TP3      O14969   4.822   0.757   4.908 -0.8034 -0.0262  0.5304
 4986TP3     H114970   4.743   0.808   4.886  1.2567  2.7346 -1.1810
 4986TP3     H214971   4.859   0.733   4.823  0.8642 -0.0816  1.2353
 4987TP3      O14972   5.300   0.978   5.870  0.2634 -0.6349  0.0767
 4987TP3     H114973   5.344   0.967   5.786  1.5853  1.0643  0.4919
 4987TP3     H214974   5.369   0.967   5.935 -0.4601 -0.4821  0.8954
 4988TP3      O14975   4.699   1.846   3.538  0.2155  0.7613  0.0055
 4988TP3     H114976   4.715   1.795   3.617  0.9432  0.8834 -0.0586
 4988TP3     H214977   4.625   1.902   3.560  1.7472  2.3742  1.3801
 4989TP3      O14978   5.941   2.342   4.282  0.6137 -0.8807  0.0935
 4989TP3     H114979   6.033   2.355   4.258  0.2385  1.2427 -0.3378
 4989TP3     H214980   5.935   2.376   4.371  0.1931 -0.7962  0.0319
 4990TP3      O14981   5.354   5.632   4.693  0.2092  0.3843  0.6729
 4990TP3     H114982   5.400   5.645   4.610 -0.3064 -2.0548 -0.0704
 4990TP3     H214983   5.394   5.697   4.752 -0.5262  3.3324 -1.8037
 4991TP3      O14984   4.579   5.904   5.367 -0.0482  0.2910 -0.6747
 4991TP3     H114985   4.644   5.840   5.394 -1.5165 -0.2644  1.7944
 4991TP3     H214986   4.628   5.986   5.357  1.4263 -0.6570 -1.4580
 4992TP3      O14987   5.322   1.813   3.815  0.2842  0.6996 -0.2686
 4992TP3     H114988   5.323   1.863   3.733 -0.4846  0.1608 -0.6276
 4992TP3     H214989   5.408   1.772   3.820 -0.0942 -0.2958 -1.4801
 4993TP3      O14990   3.881   1.181   4.935  0.0273  0.2749  0.2881
 4993TP3     H114991   3.933   1.123   4.991  1.0830  1.1425  0.2314
 4993TP3     H214992   3.904   1.270   4.964  0.1681  0.7283 -1.1481
 4994TP3      O14993   4.874   0.869   3.423 -0.0986 -0.0272  0.2399
 4994TP3     H114994   4.951   0.924   3.411 -0.7754  0.4679 -2.3575
 4994TP3     H214995   4.800   0.928   3.406 -0.9868 -0.9826  0.6723
 4995TP3      O14996   5.119   2.115   3.771  0.0888 -0.1410  1.4450
 4995TP3     H114997   5.172   2.100   3.693  1.2813  0.9326  2.0196
 4995TP3     H214998   5.111   2.029   3.812 -0.4556 -0.6950  0.2224
 4996TP3      O14999   4.085   1.872   0.460  0.7170  0.1719  0.0440
 4996TP3     H115000   4.094   1.887   0.365  0.7566 -0.4841 -0.0648
 4996TP3     H215001   4.100   1.957   0.499  1.7263  0.2583 -0.4884
 4997TP3      O15002   5.144   1.862   4.016  0.5160 -0.3516  0.3050
 4997TP3     H115003   5.097   1.931   3.970  0.1349 -1.6509 -1.3803
 4997TP3     H215004   5.210   1.832   3.954  1.1964 -0.9838  1.2917
 4998TP3      O15005   5.256   1.252   3.970  0.1385 -0.1379  1.0925
 4998TP3     H115006   5.266   1.334   3.922  1.6691 -1.0935 -0.3412
 4998TP3     H215007   5.198   1.199   3.915  0.3102 -0.5396  1.2964
 4999TP3      O15008   4.178   1.068   4.013 -0.2188 -0.3366 -0.0966
 4999TP3     H115009   4.255   1.098   4.061  0.0063 -0.4382 -0.3948
 4999TP3     H215010   4.112   1.136   4.028  0.1020  0.0160 -0.2920
 5000TP3      O15011   4.675   0.089   4.346 -0.2150 -0.0424  0.1440
 5000TP3     H115012   4.666   0.174   4.390 -1.1639 -0.9744  1.8429
 5000TP3     H215013   4.590   0.047   4.357  0.0746 -1.0101 -1.1455
 5001TP3      O15014   5.771   5.884   4.210 -0.0866 -0.0799 -0.4391
 5001TP3     H115015   5.687   5.907   4.251 -0.2893 -0.5238 -0.5961
 5001TP3     H215016   5.804   5.966   4.175 -0.7717 -0.0140 -0.9398
 5002TP3      O15017   3.448   1.720   4.002  0.7399  0.1152 -0.3000
 5002TP3     H115018   3.448   1.815   3.991 -0.1962  0.4460  2.1140
 5002TP3     H215019   3.356   1.696   4.013  1.1612 -0.4892  2.9433
 5003TP3      O15020   3.171   0.931   5.458 -0.0740 -0.0513  0.5621
 5003TP3     H115021   3.204   0.942   5.547 -1.6048 -0.5817  1.2272
 5003TP3     H215022   3.118   0.851   5.462  1.1913 -1.0470 -1.2491
 5004TP3      O15023   4.299   0.145   4.868 -0.6971 -0.0178 -0.2670
 5004TP3     H115024   4.237   0.216   4.856 -0.3705  0.1265 -1.1525
 5004TP3     H215025   4.294   0.124   4.962 -0.2631  1.6543  0.1546
 5005TP3      O15026   3.362   0.474   3.108  0.5773 -0.6581  0.0393
 5005TP3     H115027   3.298   0.457   3.039  0.2946 -1.4701  0.4864
 5005TP3     H215028   3.320   0.539   3.164  2.1244  2.6240 -2.3128
 5006TP3      O15029   5.264   0.952   5.155 -0.2425 -0.0134  0.4587
 5006TP3     H115030   5.289   0.867   5.193  0.3157  0.3766  0.9813
 5006TP3     H215031   5.175   0.938   5.122 -0.5818 -0.4964  1.5199
 5007TP3      O15032   4.088   5.825   4.298 -0.2392 -0.5388 -0.3355
 5007TP3     H115033   4.002   5.864   4.288 -0.9041 -1.6177  0.9479
 5007TP3     H215034   4.108   5.789   4.212 -0.9933 -0.1600 -0.6738
 5008TP3      O15035   0.001   0.228   4.793 -0.2929 -0.1327  0.8270
 5008TP3     H115036  -0.008   0.203   4.701  0.1716  2.6547 -0.0793
 5008TP3     H215037   0.081   0.282   4.794  0.8664 -1.7421  3.2859
 5009TP3      O15038   3.930   0.820   0.573  0.3407  0.5878  0.2940
 5009TP3     H115039   4.001   0.854   0.519  0.4456  0.5374  0.3999
 5009TP3     H215040   3.961   0.735   0.602  0.6845  1.0115  1.2023
 5010TP3      O15041   5.729   1.970   4.716  0.8204 -0.5670 -0.7224
 5010TP3     H115042   5.651   1.953   4.769  0.1872 -1.3355 -1.8480
 5010TP3     H215043   5.796   1.913   4.754 -0.2895 -3.0156 -2.1543
 5011TP3      O15044   5.136   0.555   5.102  0.5158 -0.2009 -0.0590
 5011TP3     H115045   5.225   0.584   5.121  0.7056 -0.3600 -0.6729
 5011TP3     H215046   5.142   0.514   5.016  0.1062 -1.3901  0.4630
 5012TP3      O15047   5.591   2.498   4.822 -0.6783  0.1993 -0.0994
 5012TP3     H115048   5.604   2.417   4.772  2.5490 -0.3298  1.3330
 5012TP3     H215049   5.643   2.563   4.775 -0.5765  0.6066  0.5664
 5013TP3      O15050   4.105   1.405   5.722  0.1276 -0.2117 -0.5354
 5013TP3     H115051   4.099   1.483   5.667 -2.9724  1.1785  1.4974
 5013TP3     H215052   4.152   1.341   5.668  1.1920  2.4303 -2.9871
 5014TP3      O15053   4.017   1.037   5.135  0.0777 -0.0852  0.6839
 5014TP3     H115054   3.927   1.068   5.148 -0.7261 -0.0644 -3.4909
 5014TP3     H215055   4.008   0.942   5.130  0.1756 -0.0664 -0.0241
 5015TP3      O15056   3.907   5.871   3.473  0.1899 -0.2460 -0.2034
 5015TP3     H115057   3.951   5.869   3.558 -0.0119  1.3546 -0.0260
 5015TP3     H215058   3.820   5.907   3.493 -1.4827 -3.7297 -0.4566
 5016TP3      O15059   3.687   0.375   4.162 -0.2856  0.1853  0.6300
 5016TP3     H115060   3.728   0.443   4.108  1.8079 -1.1999  0.3865
 5016TP3     H215061   3.601   0.362   4.122  0.0422  1.3165 -0.5086
 5017TP3      O15062   5.189   1.148   5.544 -0.1174  0.0351 -0.1633
 5017TP3     H115063   5.207   1.221   5.485 -1.5933  1.1785  0.7314
 5017TP3     H215064   5.101   1.165   5.577 -1.0233 -2.8037 -0.8170
 5018TP3      O15065   5.460   0.394   3.982  0.1289 -0.1092 -0.0560
 5018TP3     H115066   5.416   0.451   3.919 -1.7128 -0.5004  0.8187
 5018TP3     H215067   5.401   0.320   3.994  1.5975 -1.2810  0.2729
 5019TP3      O15068   4.730   1.252   2.912 -0.4398  0.3650  0.2130
 5019TP3     H115069   4.775   1.168   2.915  1.3440  1.2811  0.2092
 5019TP3     H215070   4.748   1.293   2.996 -0.4730  1.1499 -0.1527
 5020TP3      O15071   4.062   1.909   4.455 -0.2558  0.0334  0.6737
 5020TP3     H115072   4.111   1.845   4.405 -0.3507  0.3054  0.2267
 5020TP3     H215073   3.997   1.858   4.503  0.8791 -0.4007  1.7906
 5021TP3      O15074   4.924   1.546   4.075 -0.5061  0.0551  0.0336
 5021TP3     H115075   4.860   1.493   4.122  0.2500  1.8081  3.3316
 5021TP3     H215076   5.008   1.505   4.096 -0.2862 -1.3849 -3.0951
 5022TP3      O15077   5.359   0.465   3.768  0.3902 -0.0996 -0.1361
 5022TP3     H115078   5.425   0.519   3.725  0.0961 -0.5548 -1.2016
 5022TP3     H215079   5.276   0.509   3.749  0.0061 -1.5482 -2.1252
 5023TP3      O15080   5.058   1.659   4.653  0.3760 -0.4956 -0.0988
 5023TP3     H115081   4.991   1.647   4.720 -0.0480 -0.0727 -0.4429
 5023TP3     H215082   5.015   1.709   4.584  1.8738  2.7767  1.0961
 5024TP3      O15083   3.176   1.439   4.952 -0.0019  0.1737  0.7220
 5024TP3     H115084   3.253   1.429   4.897  0.2036  0.9545  0.8445
 5024TP3     H215085   3.208   1.488   5.028 -0.6808  0.7934  0.6208
 5025TP3      O15086   3.910   0.854   3.620  0.3455 -0.1217 -0.7246
 5025TP3     H115087   3.888   0.932   3.568  0.6722  0.5525  0.1271
 5025TP3     H215088   3.987   0.880   3.670  1.0314 -1.3078 -1.1141
 5026TP3      O15089   5.590   0.277   5.091  0.2402 -0.1121 -0.3665
 5026TP3     H115090   5.632   0.280   5.005 -1.8959  1.5323 -1.4634
 5026TP3     H215091   5.663   0.267   5.153  1.9734 -0.0064 -2.2784
 5027TP3      O15092   5.541   5.093   4.914 -0.0269 -0.3321 -0.6033
 5027TP3     H115093   5.535   4.999   4.898 -1.6376 -0.0462 -1.8418
 5027TP3     H215094   5.460   5.115   4.959 -0.5308  0.7591 -1.9951
 5028TP3      O15095   3.884   0.212   4.255  0.5328  0.2951 -0.2754
 5028TP3     H115096   3.970   0.226   4.216  0.3671  0.7340 -0.4875
 5028TP3     H215097   3.828   0.278   4.213  0.2052  0.3330  0.2218
 5029TP3      O15098   5.870   1.885   5.298 -0.1273  0.2153  0.3376
 5029TP3     H115099   5.849   1.881   5.205 -0.6921 -3.0040  0.4972
 5029TP3     H215100   5.790   1.855   5.342  0.9201 -0.7169  1.6926
 5030TP3      O15101   3.916   0.952   4.813 -0.5212  0.8647 -0.2456
 5030TP3     H115102   3.899   1.021   4.877  1.3773 -0.6106  2.0279
 5030TP3     H215103   3.847   0.888   4.828  0.2555  0.2481  0.7958
 5031TP3      O15104   4.500   1.399   4.621 -0.7050 -0.1533  0.0423
 5031TP3     H115105   4.415   1.442   4.611 -0.2133  0.4888 -1.6208
 5031TP3     H215106   4.507   1.341   4.546  0.2886 -0.2821  0.2159
 5032TP3      O15107   5.573   5.441   5.009 -0.6082 -0.3777  0.0625
 5032TP3     H115108   5.488   5.471   4.977 -0.7937  1.7687  2.2370
 5032TP3     H215109   5.568   5.451   5.104  2.2992  0.5837  0.2293
 5033TP3      O15110   4.346   0.814   4.633 -0.1629  0.1411  0.3561
 5033TP3     H115111   4.305   0.896   4.607 -1.3651  0.0181  1.7446
 5033TP3     H215112   4.281   0.770   4.687  0.4500 -1.7399 -0.3294
 5034TP3      O15113   4.797   5.901   4.208  0.0490 -0.1099 -0.5970
 5034TP3     H115114   4.886   5.934   4.199 -0.1223  0.1939 -1.2521
 5034TP3     H215115   4.750   5.969   4.256 -0.1813  0.3839 -1.5118
 5035TP3      O15116   5.692   1.651   4.352 -0.2380  0.1436  0.0878
 5035TP3     H115117   5.775   1.696   4.342 -0.6902  0.6312 -1.8452
 5035TP3     H215118   5.690   1.624   4.444  2.2624 -0.3481  0.0630
 5036TP3      O15119   5.822   0.557   4.965 -0.5487  0.1105 -0.2995
 5036TP3     H115120   5.853   0.473   4.998  0.3766  0.3621 -0.4867
 5036TP3     H215121   5.846   0.556   4.872 -1.4398  0.1722 -0.5378
 5037TP3      O15122   4.691  -0.014   3.341  0.3194 -1.0055  0.5420
 5037TP3     H115123   4.771  -0.017   3.393  0.8467 -1.4281 -0.2855
 5037TP3     H215124   4.646   0.066   3.371  2.1721  0.5475 -0.6371
 5038TP3      O15125   5.349   5.680   4.232  0.0236 -0.2929  0.3192
 5038TP3     H115126   5.302   5.601   4.258  0.8264 -0.4720  1.3026
 5038TP3     H215127   5.439   5.651   4.216 -0.1306  0.0577 -1.4377
 5039TP3      O15128   2.729   2.144   3.690 -0.2747  0.4907  0.6546
 5039TP3     H115129   2.734   2.239   3.697 -0.1258  0.6349 -0.9997
 5039TP3     H215130   2.821   2.116   3.685 -0.3335  0.4861 -0.9741
 5040TP3      O15131   4.067   1.351   3.986  0.2079  0.5852  0.3644
 5040TP3     H115132   4.022   1.329   4.067  0.7051  2.3104  1.1639
 5040TP3     H215133   4.001   1.338   3.918 -0.5172  0.0566  1.1411
 5041TP3      O15134   2.376   1.167   5.243  0.4698  0.0232  0.3254
 5041TP3     H115135   2.436   1.161   5.317  0.4925 -1.1974  0.2249
 5041TP3     H215136   2.290   1.146   5.281  0.4618 -0.4781  0.0345
 5042TP3      O15137   5.500   0.454   5.808  0.4493 -0.0601  0.4012
 5042TP3     H115138   5.405   0.454   5.824  0.1983  1.4484 -0.9084
 5042TP3     H215139   5.537   0.418   5.889 -1.2154 -0.5942  0.9761
 5043TP3      O15140   2.813   2.795   0.353 -0.4169 -0.5732 -0.4219
 5043TP3     H115141   2.862   2.876   0.358  0.2235 -0.9382 -0.6253
 5043TP3     H215142   2.762   2.792   0.434  1.0879 -0.9284  0.5507
 5044TP3      O15143   4.071   1.288   0.540  0.2813  0.3347  1.0373
 5044TP3     H115144   4.093   1.378   0.563  2.1001  0.1270  0.3338
 5044TP3     H215145   4.007   1.295   0.470 -0.7511  1.0349  2.0211
 5045TP3      O15146   5.169   0.492   0.330  0.3694  0.4752  0.5016
 5045TP3     H115147   5.227   0.566   0.311 -0.5563  1.0437 -0.1441
 5045TP3     H215148   5.081   0.529   0.330 -0.2087 -0.8095 -0.9002
 5046TP3      O15149   4.347   0.952   1.342 -0.8868 -0.6773  0.2105
 5046TP3     H115150   4.281   1.018   1.366  0.3160  0.0262  1.8220
 5046TP3     H215151   4.431   0.993   1.365 -0.0531 -2.5056  0.6112
 5047TP3      O15152   0.428   0.983   0.467 -0.5343  0.0830 -0.3304
 5047TP3     H115153   0.414   0.996   0.561 -2.0374  0.8572 -0.6230
 5047TP3     H215154   0.350   1.020   0.426  0.8098  1.2140 -1.9988
 5048TP3      O15155   5.107   0.626   5.912  0.2858 -0.5713  0.3887
 5048TP3     H115156   5.023   0.664   5.936  0.4289  0.7195 -0.9942
 5048TP3     H215157   5.164   0.646   5.986 -0.0836  0.4549  0.4124
 5049TP3      O15158   5.143   0.964   0.080  0.2625 -0.5487  0.2427
 5049TP3     H115159   5.200   0.999   0.011 -0.1372  1.3835  0.8519
 5049TP3     H215160   5.164   1.016   0.157 -0.9546 -1.1204  0.9859
 5050TP3      O15161   3.583   0.905   5.422  0.0806  0.0055  0.7631
 5050TP3     H115162   3.570   0.824   5.471 -2.6387 -0.7654 -0.9862
 5050TP3     H215163   3.615   0.967   5.487  0.7261 -2.0255  2.5238
 5051TP3      O15164   5.120   0.642   5.495 -0.1039  0.4531 -0.3475
 5051TP3     H115165   5.027   0.658   5.479 -0.7182  0.9752  3.0647
 5051TP3     H215166   5.157   0.729   5.506  0.1890  0.1661  1.0503
 5052TP3      O15167   3.482   0.687   0.272 -0.1332  0.0475 -0.4480
 5052TP3     H115168   3.389   0.686   0.296  0.1335 -0.4894  0.6143
 5052TP3     H215169   3.527   0.714   0.353  0.7634 -1.2789 -0.4793
 5053TP3      O15170   5.014   0.901   5.291 -0.2350  0.0266  1.1120
 5053TP3     H115171   5.010   0.876   5.199  0.7050  0.1612  1.0180
 5053TP3     H215172   4.964   0.834   5.337  0.5011 -0.8716  0.6501
 5054TP3      O15173   5.301   1.508   5.409 -0.1371  0.3570 -0.8907
 5054TP3     H115174   5.316   1.586   5.462 -0.5862 -0.5124  0.5771
 5054TP3     H215175   5.219   1.526   5.363 -1.7494 -0.2614  1.5344
 5055TP3      O15176   4.111   1.625   5.577  0.0754 -0.1552  0.1341
 5055TP3     H115177   4.198   1.637   5.615  0.9596  0.0722 -1.8200
 5055TP3     H215178   4.080   1.714   5.561  0.1246 -0.2453 -0.5007
 5056TP3      O15179   4.542   5.785   0.252  0.0520 -0.0529 -0.0988
 5056TP3     H115180   4.451   5.815   0.246 -0.5002 -1.6620 -0.3146
 5056TP3     H215181   4.586   5.851   0.304 -1.1595  0.9508 -0.3021
 5057TP3      O15182   5.161   1.362   0.425  0.5432  0.2081  0.5512
 5057TP3     H115183   5.196   1.437   0.472 -2.2051  2.4719 -0.7118
 5057TP3     H215184   5.143   1.297   0.493  2.4847  0.8358  1.7422
 5058TP3      O15185   4.350   5.594   5.426 -0.0619 -0.5797 -0.1226
 5058TP3     H115186   4.257   5.573   5.413  0.3444 -1.7053 -1.5233
 5058TP3     H215187   4.350   5.678   5.471 -1.7609  0.0958 -1.2975
 5059TP3      O15188   5.066   0.984   5.720 -0.4555 -0.4733  0.6900
 5059TP3     H115189   5.131   0.959   5.786  0.1367  0.3733  0.4354
 5059TP3     H215190   5.115   1.032   5.655 -0.8448 -2.1155 -0.9073
 5060TP3      O15191   0.229   0.385   0.196 -0.2565 -0.2465  0.1501
 5060TP3     H115192   0.294   0.396   0.265 -0.2488 -1.5590  0.3767
 5060TP3     H215193   0.280   0.361   0.119 -0.4628 -1.7224  0.4364
 5061TP3      O15194   4.298   1.442   5.468 -0.2021 -0.1054  0.3410
 5061TP3     H115195   4.355   1.519   5.469  1.0664 -1.0025  1.1063
 5061TP3     H215196   4.296   1.415   5.377  1.4074 -0.5865  0.4124
 5062TP3      O15197   5.663   1.206   5.834 -0.0119 -0.4564 -0.0611
 5062TP3     H115198   5.672   1.121   5.791  0.5403 -0.7332  0.5821
 5062TP3     H215199   5.586   1.246   5.794 -0.6927 -1.5588  0.1201
 5063TP3      O15200   0.447   0.618   5.630 -0.6435 -0.1419 -0.0640
 5063TP3     H115201   0.525   0.563   5.619  0.3712  1.4486 -1.2832
 5063TP3     H215202   0.373   0.557   5.619  0.4150 -1.2181 -1.7962
 5064TP3      O15203   4.190   5.976   0.635 -0.2909  0.2088  0.4870
 5064TP3     H115204   4.113   5.985   0.578 -0.5870 -1.5473  0.5647
 5064TP3     H215205   4.205   5.882   0.640  3.3496  0.5296 -1.4601
 5065TP3      O15206   5.404   1.326   0.049 -0.1821  0.0089  0.1217
 5065TP3     H115207   5.408   1.383  -0.028  0.1547 -0.3341 -0.1171
 5065TP3     H215208   5.491   1.289   0.056 -0.0805  0.3855  0.9481
 5066TP3      O15209   4.160   1.009   0.529 -0.0975 -0.3797  0.1524
 5066TP3     H115210   4.167   1.101   0.506 -1.6512 -0.3995 -0.5315
 5066TP3     H215211   4.148   1.008   0.624 -2.5341  0.3306 -0.0750
 5067TP3      O15212   5.181   0.019   5.271  0.3970  0.0536 -0.9507
 5067TP3     H115213   5.130  -0.062   5.271 -0.0253  0.3169 -0.8657
 5067TP3     H215214   5.119   0.087   5.246 -0.3445  1.0250  2.8755
 5068TP3      O15215   5.615   0.691   5.912 -0.0843 -0.5593 -0.2919
 5068TP3     H115216   5.572   0.617   5.869  0.0107 -0.3319 -0.7924
 5068TP3     H215217   5.547   0.758   5.917 -0.4756 -1.0222  1.1011
 5069TP3      O15218   3.246   1.350   0.775 -0.7313  0.5156 -0.2587
 5069TP3     H115219   3.288   1.273   0.814 -0.8534  1.5246  2.0349
 5069TP3     H215220   3.203   1.316   0.696 -0.0144 -1.5685  0.1721
 5070TP3      O15221   4.603   0.349   0.651 -0.2038 -0.0186  0.4432
 5070TP3     H115222   4.531   0.335   0.589  0.9914 -2.6095 -0.4779
 5070TP3     H215223   4.585   0.436   0.688 -2.8926  0.1299 -0.9205
 5071TP3      O15224   3.971   5.706   5.586  0.0099 -0.5361 -0.0431
 5071TP3     H115225   3.957   5.721   5.679  0.0365  0.5052 -0.1904
 5071TP3     H215226   4.005   5.789   5.553  1.3383 -1.3205 -0.7325
 5072TP3      O15227   5.005   5.353   5.319  0.3691 -0.1144 -0.0079
 5072TP3     H115228   5.008   5.388   5.408  0.4802 -0.9702  0.3356
 5072TP3     H215229   4.962   5.268   5.328 -1.3166  0.5750 -1.0470
 5073TP3      O15230   4.844   1.910   5.676 -0.8472 -0.0210 -0.2492
 5073TP3     H115231   4.882   1.825   5.655  0.4236  0.6957 -0.9526
 5073TP3     H215232   4.784   1.892   5.749 -0.6580 -1.5123 -0.4312
 5074TP3      O15233   3.997   1.405   5.971 -0.1268 -0.3180 -0.0753
 5074TP3     H115234   4.021   1.408   5.879  0.9098  2.5836  0.1801
 5074TP3     H215235   3.910   1.444   5.974  0.2316  0.4934  0.2227
 5075TP3      O15236   3.815   1.478   0.556  0.2795 -0.2237  0.6548
 5075TP3     H115237   3.894   1.530   0.549 -0.5552  0.9134 -1.2934
 5075TP3     H215238   3.743   1.540   0.545 -0.9370 -1.1874  2.5602
 5076TP3      O15239   4.732   2.088   5.889  0.5854  0.4728 -0.1033
 5076TP3     H115240   4.719   1.994   5.882 -0.6879  0.6573 -0.4148
 5076TP3     H215241   4.682   2.124   5.816 -0.2578  1.4834  0.9308
 5077TP3      O15242   4.285   1.056   0.238  0.1057 -0.0939  0.0551
 5077TP3     H115243   4.248   1.060   0.326  0.0928 -0.2106  0.0557
 5077TP3     H215244   4.226   0.998   0.190 -0.7995  1.2149 -0.4843
 5078TP3      O15245   4.009   0.428   5.398 -0.2934  0.7049  0.2858
 5078TP3     H115246   4.028   0.473   5.315  0.4075 -0.0958 -0.0001
 5078TP3     H215247   3.915   0.439   5.410 -0.3750  0.9785 -0.5272
 5079TP3      O15248   3.976   5.233   5.544 -0.7022  0.4417  1.1540
 5079TP3     H115249   3.977   5.173   5.618 -0.8567  0.4429  1.1564
 5079TP3     H215250   4.068   5.259   5.534 -0.7811  0.9814  1.7783
 5080TP3      O15251   4.371   5.578   0.263  0.0213 -0.2445 -0.3794
 5080TP3     H115252   4.426   5.560   0.186 -2.3375  0.9235 -2.4853
 5080TP3     H215253   4.417   5.648   0.309  1.1403 -0.4852 -1.0686
 5081TP3      O15254   4.750   1.116   4.729 -0.3249 -0.4916 -0.1808
 5081TP3     H115255   4.739   1.023   4.709 -1.7769  0.2700 -3.4918
 5081TP3     H215256   4.687   1.133   4.799  1.8038 -2.3965  2.4592
 5082TP3      O15257   5.323   5.790   5.805  0.4091  1.1773  0.5914
 5082TP3     H115258   5.371   5.862   5.847  1.2402  1.4538 -0.7839
 5082TP3     H215259   5.292   5.828   5.723  2.1211 -0.4420 -0.8607
 5083TP3      O15260   5.434   5.931   0.807  0.0817  0.3055  0.3594
 5083TP3     H115261   5.410   6.020   0.833 -1.3475  1.2094 -3.4231
 5083TP3     H215262   5.375   5.875   0.857 -0.8495  1.6993  0.8872
 5084TP3      O15263   5.422   0.796   5.675  0.9404 -0.6075  1.1787
 5084TP3     H115264   5.405   0.702   5.685  3.0439 -1.1756 -0.0074
 5084TP3     H215265   5.357   0.825   5.611 -1.6327 -0.5453  3.6519
 5085TP3      O15266   4.926   0.472   0.484 -0.0536 -0.0426  0.2188
 5085TP3     H115267   4.950   0.380   0.493  2.0164  0.5895  2.2748
 5085TP3     H215268   4.832   0.471   0.465  0.2840 -2.5708 -1.8603
 5086TP3      O15269   4.194   1.026   5.894 -0.9358  0.5487 -0.2526
 5086TP3     H115270   4.207   1.089   5.824 -0.6545  0.6998 -0.0662
 5086TP3     H215271   4.100   1.008   5.894 -0.7447 -0.6510 -1.6879
 5087TP3      O15272   4.039   1.276   0.209 -0.1550 -0.2636  0.3208
 5087TP3     H115273   4.042   1.314   0.122  2.3879 -0.1014  0.3824
 5087TP3     H215274   4.131   1.270   0.236 -0.4027 -4.7200  1.0850
 5088TP3      O15275   2.885   1.866   0.766 -0.1366 -0.5785 -0.7303
 5088TP3     H115276   2.828   1.896   0.837 -0.5497 -1.1075 -0.8354
 5088TP3     H215277   2.830   1.867   0.688  0.4491  0.4823 -1.1649
 5089TP3      O15278   3.706   2.757   0.969 -0.1526  0.1590  0.5929
 5089TP3     H115279   3.725   2.836   1.020 -1.2481  0.2286  0.9260
 5089TP3     H215280   3.786   2.704   0.975  1.1376  1.8135 -0.7733
 5090TP3      O15281   3.323   2.811   0.906  0.2130  0.0667  0.0635
 5090TP3     H115282   3.269   2.882   0.942 -0.2096 -0.4627  0.4995
 5090TP3     H215283   3.283   2.792   0.821 -0.7169 -0.7632  0.6622
 5091TP3      O15284   4.654   2.938   1.025 -0.0472 -0.4191  0.1031
 5091TP3     H115285   4.670   2.974   1.113 -0.1818 -1.9640  0.7887
 5091TP3     H215286   4.731   2.884   1.007 -1.7076 -3.2926  1.0035
 5092TP3      O15287   5.058   2.851   0.948  0.0723  0.3181 -0.1291
 5092TP3     H115288   5.059   2.946   0.932  0.7102  0.0195 -2.1285
 5092TP3     H215289   5.148   2.830   0.974  0.4098  0.0354 -1.4386
 5093TP3      O15290   5.418   2.216   5.833  0.3380  0.4644  0.7560
 5093TP3     H115291   5.468   2.270   5.894  1.4358 -0.5764  0.8091
 5093TP3     H215292   5.347   2.179   5.887  0.4478  0.6870  1.0548
 5094TP3      O15293   5.194   2.472   0.044 -0.4415  0.5913  0.2641
 5094TP3     H115294   5.254   2.526   0.095  3.4835 -2.2758 -0.7854
 5094TP3     H215295   5.193   2.511  -0.043  1.5829 -0.2780 -0.2182
 5095TP3      O15296   4.236   2.461   0.675 -0.4590  0.4067  0.2591
 5095TP3     H115297   4.318   2.419   0.701  0.1990  0.7191 -1.2165
 5095TP3     H215298   4.246   2.552   0.700 -1.9555 -0.1796  3.6169
 5096TP3      O15299   4.897   2.839   1.863 -0.9403  0.0187 -0.3865
 5096TP3     H115300   4.973   2.813   1.915 -0.9026  3.2283  1.4710
 5096TP3     H215301   4.934   2.878   1.784 -0.8430 -1.5595 -1.1409
 5097TP3      O15302   4.012   2.930   0.099 -0.6158  0.4643 -0.0880
 5097TP3     H115303   4.060   2.947   0.018 -0.8994 -1.7128 -0.7854
 5097TP3     H215304   4.075   2.885   0.156 -0.9117  0.4147  0.2074
 5098TP3      O15305   5.125   3.443   2.058 -0.3977 -0.4079 -0.0035
 5098TP3     H115306   5.171   3.526   2.044  0.2104 -0.4676  1.4311
 5098TP3     H215307   5.070   3.433   1.981  0.7749  0.4926 -0.9961
 5099TP3      O15308   3.009   3.670   0.871  0.2276  0.0572 -0.0331
 5099TP3     H115309   2.959   3.717   0.803  1.1104 -0.3026 -0.9581
 5099TP3     H215310   2.946   3.608   0.907 -0.4533  0.7240 -0.0392
 5100TP3      O15311   0.163   3.869   1.599  0.4894 -0.6487  0.3860
 5100TP3     H115312   0.232   3.825   1.649 -0.4726 -2.0582  0.5454
 5100TP3     H215313   0.117   3.922   1.663 -0.2031 -1.7792  0.8456
 5101TP3      O15314   4.475   1.894   1.151  0.0702  0.5534 -0.2636
 5101TP3     H115315   4.414   1.897   1.225  1.2381  0.8440  0.7187
 5101TP3     H215316   4.530   1.818   1.169  1.4379  1.5838  0.0729
 5102TP3      O15317   4.560   1.985   0.881 -0.3458  0.1182  0.1997
 5102TP3     H115318   4.522   1.911   0.833 -2.6903  0.7916  0.8532
 5102TP3     H215319   4.499   2.000   0.953  1.4030  1.1371  1.5477
 5103TP3      O15320   4.540   3.863   0.007 -0.0650  0.1205 -0.1991
 5103TP3     H115321   4.521   3.920   0.081  0.4304  1.0619 -0.7745
 5103TP3     H215322   4.632   3.840   0.018 -0.4355 -1.1628  0.4062
 5104TP3      O15323   5.498   3.098   2.088 -0.0580 -0.7730 -0.7631
 5104TP3     H115324   5.557   3.024   2.076 -0.2247 -1.1016  0.3390
 5104TP3     H215325   5.523   3.136   2.172 -1.4614 -0.9987 -0.2102
 5105TP3      O15326   3.845   3.346   0.140 -0.0415  0.8726  0.1873
 5105TP3     H115327   3.823   3.400   0.216  0.3174  0.8750  0.2939
 5105TP3     H215328   3.799   3.264   0.154 -2.0152  1.7205 -0.8203
 5106TP3      O15329   4.548   3.252   0.417  0.1210 -0.1470 -0.8671
 5106TP3     H115330   4.459   3.271   0.447  1.4443 -0.5267  4.0565
 5106TP3     H215331   4.594   3.335   0.420  0.6626 -0.4557 -0.3796
 5107TP3      O15332   4.238   3.340   1.474 -0.1837  0.1890 -0.5031
 5107TP3     H115333   4.167   3.314   1.533  0.7445 -0.3370  0.4092
 5107TP3     H215334   4.290   3.402   1.525 -0.4588  1.2529 -1.4732
 5108TP3      O15335   4.629   3.324   5.255  0.1069  0.7250 -0.1752
 5108TP3     H115336   4.616   3.415   5.228  1.2775  1.1907  0.7292
 5108TP3     H215337   4.723   3.318   5.272  0.4092 -1.1836 -2.0770
 5109TP3      O15338   5.221   1.963   1.073  0.0858  0.0953  0.1573
 5109TP3     H115339   5.158   1.892   1.087  0.1960 -0.2224 -0.8349
 5109TP3     H215340   5.171   2.032   1.030  0.3490 -0.0608 -0.4119
 5110TP3      O15341   3.243   2.044   0.502 -0.4842 -0.1429 -0.5137
 5110TP3     H115342   3.300   2.096   0.444 -1.2810  0.6365 -0.6204
 5110TP3     H215343   3.184   1.997   0.442  0.5175 -1.5532 -0.4398
 5111TP3      O15344   5.539   2.955   0.232  0.2283 -0.0803  0.4683
 5111TP3     H115345   5.519   2.952   0.326  2.0745 -1.4731  0.8702
 5111TP3     H215346   5.611   2.894   0.221  1.7717  1.9441 -1.4536
 5112TP3      O15347   4.265   2.724   0.734 -0.0236 -0.0697  0.3055
 5112TP3     H115348   4.315   2.767   0.664  1.2947 -0.8243  0.7416
 5112TP3     H215349   4.291   2.772   0.813 -1.5791  0.8432  0.3103
 5113TP3      O15350   4.612   2.174   0.545  0.0091 -0.1279  0.0319
 5113TP3     H115351   4.671   2.159   0.620 -2.0438  0.0395  1.7766
 5113TP3     H215352   4.669   2.210   0.477  2.3929 -2.3162  0.6874
 5114TP3      O15353   5.531   2.696   0.831  0.1789 -0.5940  0.2715
 5114TP3     H115354   5.553   2.620   0.778  0.8748  0.1286 -0.5138
 5114TP3     H215355   5.578   2.683   0.913  0.6923 -0.7790 -0.0462
 5115TP3      O15356   2.981   3.037   2.176  0.0233  0.4568 -0.4234
 5115TP3     H115357   3.017   3.005   2.094 -0.5651 -1.1663 -0.0862
 5115TP3     H215358   2.997   2.966   2.239 -1.9174  0.5075  0.2081
 5116TP3      O15359   4.078   2.252   0.758 -0.2466  0.0904 -0.2266
 5116TP3     H115360   4.115   2.330   0.718 -2.5544  1.0470 -0.6515
 5116TP3     H215361   4.095   2.182   0.695  1.3686  0.3254 -0.0879
 5117TP3      O15362   4.463   3.892   1.192  0.2639 -0.5019  0.0809
 5117TP3     H115363   4.398   3.959   1.173  0.8124  0.1136  0.3122
 5117TP3     H215364   4.417   3.827   1.245 -0.2743 -0.3030 -0.1432
 5118TP3      O15365   4.736   2.547   1.052  0.1325 -0.1906  0.3664
 5118TP3     H115366   4.716   2.591   0.969  1.6729  0.4292  0.2909
 5118TP3     H215367   4.672   2.476   1.058  0.1426 -0.3871 -1.4582
 5119TP3      O15368   3.958   3.246   1.070  1.3365  0.2463 -0.1714
 5119TP3     H115369   4.035   3.263   1.123  1.0140 -1.2303  0.8305
 5119TP3     H215370   3.910   3.329   1.068  0.3027 -0.1104  3.6088
 5120TP3      O15371   5.009   2.775   5.607 -0.0348 -0.2825  0.2911
 5120TP3     H115372   5.024   2.719   5.531  0.1391 -0.8497  0.7381
 5120TP3     H215373   5.063   2.737   5.676  0.9726  1.0785  0.3025
 5121TP3      O15374   5.126   3.181   2.409  0.1011 -0.0351 -0.1843
 5121TP3     H115375   5.174   3.234   2.345  1.6221 -2.7740 -1.4499
 5121TP3     H215376   5.039   3.169   2.369 -0.6822  2.2671  0.6347
 5122TP3      O15377   3.884   1.888   1.718 -0.1201  0.1918 -0.2064
 5122TP3     H115378   3.955   1.851   1.667 -0.3106 -3.5459  1.8249
 5122TP3     H215379   3.812   1.898   1.656  0.7346 -0.6357 -1.3745
 5123TP3      O15380   0.409   4.073   1.066  0.5550 -0.8823  0.2175
 5123TP3     H115381   0.409   3.978   1.055 -0.1390 -0.8488 -0.1253
 5123TP3     H215382   0.502   4.098   1.058  1.0541 -1.7655  2.5672
 5124TP3      O15383   4.320   3.204   0.770  0.0770  0.2132 -0.1199
 5124TP3     H115384   4.245   3.150   0.795  1.5474 -1.3420  1.3084
 5124TP3     H215385   4.329   3.191   0.676 -0.7694 -0.5017 -0.1166
 5125TP3      O15386   4.349   2.832   5.967  0.0985 -0.2058  0.2215
 5125TP3     H115387   4.416   2.808   5.903 -0.0478 -1.2795  0.4386
 5125TP3     H215388   4.315   2.915   5.937  1.8474  0.6104  0.3534
 5126TP3      O15389   4.368   3.194   1.276 -0.2802  0.2393  0.2176
 5126TP3     H115390   4.302   3.235   1.331 -1.2590  1.1145 -1.5268
 5126TP3     H215391   4.351   3.228   1.188  0.2716 -2.2319 -0.9322
 5127TP3      O15392   4.726   3.614   0.310 -0.9668 -0.6897  0.5000
 5127TP3     H115393   4.726   3.566   0.227 -0.3037  0.5329 -0.2377
 5127TP3     H215394   4.774   3.558   0.371  2.4312  0.1960 -1.1048
 5128TP3      O15395   4.851   2.278   0.978 -0.0851  0.4578 -0.0731
 5128TP3     H115396   4.935   2.314   1.008  0.4680 -0.4108 -0.5602
 5128TP3     H215397   4.786   2.342   1.008  0.8625  1.8535 -0.8722
 5129TP3      O15398   5.878   1.007   2.170  0.4954  0.3351  0.5705
 5129TP3     H115399   5.958   0.961   2.144 -0.0513 -1.0306  1.1603
 5129TP3     H215400   5.906   1.067   2.239  1.1274  0.3695  0.2863
 5130TP3      O15401   5.765   3.398   2.070  0.1232  0.3109 -0.4626
 5130TP3     H115402   5.772   3.385   2.165 -2.7839 -0.9159 -0.3324
 5130TP3     H215403   5.816   3.326   2.032  0.4303  0.1983  0.1428
 5131TP3      O15404   4.402   1.174   0.544 -0.3069 -0.0097 -0.2138
 5131TP3     H115405   4.481   1.126   0.519 -1.0678 -0.8505 -1.0406
 5131TP3     H215406   4.423   1.265   0.523 -0.5250 -0.5275 -3.0904
 5132TP3      O15407   4.352   2.938   0.452 -0.2314  0.0438 -0.3021
 5132TP3     H115408   4.270   2.960   0.496 -0.8362  0.6454 -1.6931
 5132TP3     H215409   4.326   2.880   0.381  0.8131 -1.4649  0.4868
 5133TP3      O15410   3.598   2.337   0.290  0.9000  0.0342  0.2161
 5133TP3     H115411   3.573   2.376   0.206  0.4161  0.2370  0.4484
 5133TP3     H215412   3.686   2.369   0.307  0.8181  0.3700  0.0135
 5134TP3      O15413   3.515   4.408   2.410  0.3959  0.0271 -0.3841
 5134TP3     H115414   3.462   4.469   2.359 -0.1554 -1.6832 -1.9677
 5134TP3     H215415   3.600   4.408   2.366  1.4503  1.8665  1.4446
 5135TP3      O15416   5.085   2.871   5.235 -0.1069 -0.4631  0.2079
 5135TP3     H115417   5.166   2.843   5.193  0.0873  0.9900 -0.4621
 5135TP3     H215418   5.107   2.876   5.328 -0.1566 -2.4133  0.3674
 5136TP3      O15419  -0.008   2.386   1.614 -0.4324  0.3730 -0.5052
 5136TP3     H115420  -0.027   2.322   1.546 -2.6622  0.4466 -0.0390
 5136TP3     H215421   0.041   2.455   1.569 -2.0262  0.5301 -2.1205
 5137TP3      O15422   5.558   2.373   0.191  0.1708  0.6666 -0.4489
 5137TP3     H115423   5.525   2.462   0.178 -0.7026  0.2872 -0.8891
 5137TP3     H215424   5.616   2.380   0.267  0.2642  1.6501 -0.6038
 5138TP3      O15425   3.993   1.405   5.386 -0.6937  0.3542 -0.0431
 5138TP3     H115426   3.944   1.432   5.464  0.0518 -1.3196  1.0697
 5138TP3     H215427   4.081   1.442   5.399 -0.6776  0.3951 -0.2716
 5139TP3      O15428   3.717   3.617   1.495 -0.0943  0.5408  0.5823
 5139TP3     H115429   3.790   3.678   1.492  0.4059 -0.0404  0.7670
 5139TP3     H215430   3.680   3.619   1.407  0.2191  0.7543  0.4550
 5140TP3      O15431   4.095   3.014   0.563 -0.6638 -0.1386 -0.7601
 5140TP3     H115432   4.058   3.037   0.649  2.3053 -1.4737  1.0297
 5140TP3     H215433   4.084   3.093   0.511 -0.0185  1.7784  1.8001
 5141TP3      O15434   5.214   2.622   0.455 -0.8278 -0.1285 -0.4681
 5141TP3     H115435   5.161   2.698   0.430 -1.6019 -0.4411  0.1602
 5141TP3     H215436   5.249   2.645   0.542 -1.0083 -0.4548 -0.3057
 5142TP3      O15437   5.456   3.439   1.529 -0.3146 -0.0526 -0.1840
 5142TP3     H115438   5.548   3.425   1.509 -0.5753 -1.0646 -0.7185
 5142TP3     H215439   5.438   3.528   1.498  0.1325 -0.3617 -1.3707
 5143TP3      O15440   4.724   2.442   5.906 -0.3995  0.4325  0.2957
 5143TP3     H115441   4.703   2.412   5.995 -3.8932 -1.3436 -0.9693
 5143TP3     H215442   4.697   2.370   5.849  1.0416  1.8120 -2.3032
 5144TP3      O15443   4.683   2.720   0.821 -0.3913 -0.6198 -0.7769
 5144TP3     H115444   4.690   2.689   0.731  3.1824 -1.2003 -0.4036
 5144TP3     H215445   4.708   2.812   0.816 -1.0211 -0.4243 -0.4577
 5145TP3      O15446   4.792   3.408   2.060  0.1884  0.1223 -0.5257
 5145TP3     H115447   4.731   3.341   2.090  0.1127  0.3923 -0.0655
 5145TP3     H215448   4.822   3.451   2.140  1.0038 -0.0228 -0.7454
 5146TP3      O15449   4.818   3.450   5.552 -0.1012  0.2478 -0.4840
 5146TP3     H115450   4.792   3.450   5.644  1.3252 -0.0890 -0.0501
 5146TP3     H215451   4.737   3.437   5.504 -1.1747  2.3318  0.6134
 5147TP3      O15452   3.702   2.264   0.956 -0.1862  0.3433 -0.2357
 5147TP3     H115453   3.653   2.279   0.875  2.3916  0.2028 -1.9462
 5147TP3     H215454   3.711   2.169   0.961 -0.8535  0.3080  0.6026
 5148TP3      O15455   5.477   3.575   5.569 -0.5462 -0.0706 -0.0498
 5148TP3     H115456   5.471   3.538   5.657  0.1228 -1.8504 -0.7133
 5148TP3     H215457   5.446   3.505   5.511 -1.9707  1.4353 -1.1817
 5149TP3      O15458   3.974   3.269   0.462  0.4797 -0.4168  0.4775
 5149TP3     H115459   3.929   3.345   0.424  0.6158 -0.4609  0.2228
 5149TP3     H215460   3.980   3.289   0.555 -0.8079 -0.7838  0.6588
 5150TP3      O15461   4.769   2.127   0.772 -0.3809 -0.3773  0.1182
 5150TP3     H115462   4.715   2.065   0.821  2.3248 -1.8591  1.4691
 5150TP3     H215463   4.799   2.190   0.838  1.2417 -0.8868 -0.0736
 5151TP3      O15464   5.234   4.177   2.237 -0.1205 -0.0454 -0.0421
 5151TP3     H115465   5.273   4.213   2.158 -0.2443 -0.8394 -0.4757
 5151TP3     H215466   5.214   4.253   2.291 -0.1952  0.5162 -0.8497
 5152TP3      O15467   3.844   3.736   0.549 -0.2631 -0.2570 -0.9532
 5152TP3     H115468   3.899   3.814   0.536 -0.1338 -0.4585 -1.6448
 5152TP3     H215469   3.755   3.769   0.541 -0.3900  0.4296  1.9829
 5153TP3      O15470   3.525   2.625   0.815  0.2572  0.4053 -0.8018
 5153TP3     H115471   3.448   2.680   0.827  0.1723  0.7773 -2.6802
 5153TP3     H215472   3.597   2.676   0.851 -0.3833 -0.1731  1.4761
 5154TP3      O15473   0.032   1.998   1.608  0.0403 -0.2729  0.4727
 5154TP3     H115474   0.048   2.068   1.545 -0.9626 -1.4033 -1.1106
 5154TP3     H215475  -0.040   2.030   1.662 -1.5291 -0.6711 -1.2930
 5155TP3      O15476   3.964   2.311   0.387  0.2061  0.5428  0.3624
 5155TP3     H115477   3.961   2.395   0.434 -1.7862 -0.2374  1.7627
 5155TP3     H215478   3.936   2.333   0.298 -0.3721  1.3460  0.7319
 5156TP3      O15479   4.933   2.856   2.330  0.3357 -0.0055  0.1463
 5156TP3     H115480   4.945   2.845   2.424  2.2689  1.0501  0.0722
 5156TP3     H215481   4.855   2.910   2.322  0.1757 -0.0627  1.1492
 5157TP3      O15482   4.610   3.029   1.281 -0.7427 -0.5503  0.0297
 5157TP3     H115483   4.560   2.949   1.296 -0.5056 -0.4911  1.1874
 5157TP3     H215484   4.543   3.094   1.258 -1.0095 -0.8944 -0.1895
 5158TP3      O15485   4.408   2.469   1.407  0.4465  0.0131  0.2594
 5158TP3     H115486   4.496   2.503   1.391  1.0593 -2.1064 -1.3306
 5158TP3     H215487   4.421   2.377   1.431 -1.3341 -0.3092  0.1772
 5159TP3      O15488   4.773   3.222   0.935 -0.0274  0.6497  0.9484
 5159TP3     H115489   4.810   3.259   1.016  1.3931  1.5281 -0.0552
 5159TP3     H215490   4.848   3.185   0.889 -0.5696  1.3749 -0.5887
 5160TP3      O15491   3.846   2.508   0.915 -0.4340  0.7714  0.5846
 5160TP3     H115492   3.786   2.435   0.929 -1.2985  1.8720  3.4654
 5160TP3     H215493   3.903   2.506   0.992  0.9996  1.8084 -0.4073
 5161TP3      O15494   4.482   1.924   0.234 -0.1442  0.3426 -0.3489
 5161TP3     H115495   4.444   1.862   0.172  2.0917 -0.9574 -0.5133
 5161TP3     H215496   4.514   1.996   0.179 -1.9537  1.2990 -0.2352
 5162TP3      O15497   4.916   4.515   4.495 -0.2358  0.7218 -0.5478
 5162TP3     H115498   4.821   4.527   4.502 -0.5111  0.7253 -3.2268
 5162TP3     H215499   4.947   4.518   4.586 -2.6419  1.8723  0.3328
 5163TP3      O15500   5.277   2.633   1.054 -0.6996 -0.1554 -0.1775
 5163TP3     H115501   5.317   2.550   1.028  0.3613 -0.0418  0.9730
 5163TP3     H215502   5.230   2.613   1.135  1.9535  0.8595  1.7687
 5164TP3      O15503   5.212   3.366   1.027 -0.6242  0.3769  0.5137
 5164TP3     H115504   5.147   3.436   1.018  0.9766  2.2133  2.0785
 5164TP3     H215505   5.284   3.407   1.076 -0.1924 -2.7922  2.8281
 5165TP3      O15506   4.444   3.234   0.995  0.2518  0.1338 -0.0059
 5165TP3     H115507   4.394   3.232   0.913  1.3010  3.5488 -0.8735
 5165TP3     H215508   4.532   3.205   0.969  0.2843  0.0620  0.1855
 5166TP3      O15509   4.073   3.082   0.875 -0.8355 -0.3150  0.4957
 5166TP3     H115510   4.079   3.072   0.970 -1.0967  1.5065  0.7205
 5166TP3     H215511   4.022   3.006   0.847  1.7824 -2.5758  1.4114
 5167TP3      O15512   4.849   3.612   1.416  0.3571  0.4147  0.1170
 5167TP3     H115513   4.880   3.546   1.478  0.3677 -1.5334 -1.8342
 5167TP3     H215514   4.823   3.686   1.471 -2.1933 -2.1437  2.7601
 5168TP3      O15515   5.204   1.955   5.717  0.1136 -0.2682  0.7377
 5168TP3     H115516   5.151   2.035   5.713  1.5891  0.7325 -2.3919
 5168TP3     H215517   5.294   1.987   5.714  0.7357 -2.0164 -1.8902
 5169TP3      O15518   3.917   2.594   1.653  0.2071 -0.2981 -0.2922
 5169TP3     H115519   3.902   2.531   1.723 -1.7014 -0.4749 -0.8048
 5169TP3     H215520   3.963   2.666   1.695  0.7525 -1.2004  0.7131
 5170TP3      O15521   4.554   2.138   1.760 -0.3020 -0.4599  0.0076
 5170TP3     H115522   4.637   2.131   1.807 -0.8164 -2.9439  0.6918
 5170TP3     H215523   4.548   2.230   1.736  2.8134 -0.2509 -0.4020
 5171TP3      O15524   4.878   2.671   0.251 -0.6291 -0.1320  0.0970
 5171TP3     H115525   4.963   2.715   0.256 -1.0782  0.7859 -0.1441
 5171TP3     H215526   4.817   2.731   0.295 -1.7210  0.6892 -2.3416
 5172TP3      O15527   3.861   2.608   1.366 -0.0009  0.1564  0.5431
 5172TP3     H115528   3.767   2.620   1.356 -0.6675 -4.5320 -1.4049
 5172TP3     H215529   3.873   2.588   1.459 -1.2082 -0.7723  0.5225
 5173TP3      O15530   5.468   4.078   1.552 -0.0828 -0.1222 -0.0354
 5173TP3     H115531   5.512   4.162   1.536 -0.6201  0.2366  0.3363
 5173TP3     H215532   5.381   4.102   1.583 -0.6534 -0.8249 -1.0386
 5174TP3      O15533   5.582   1.690   1.181 -0.2945  0.3056 -0.7831
 5174TP3     H115534   5.619   1.767   1.224 -0.0186 -2.2687  4.3215
 5174TP3     H215535   5.655   1.628   1.175 -0.8504 -0.2256 -3.3811
 5175TP3      O15536   0.105   3.697   0.984 -0.1346  0.5642 -0.5938
 5175TP3     H115537   0.142   3.615   0.950  0.3978  0.6519 -0.2439
 5175TP3     H215538   0.181   3.747   1.014 -0.4616  1.1669 -0.7540
 5176TP3      O15539   3.753   3.735   5.682 -0.1537  0.5371  0.5221
 5176TP3     H115540   3.737   3.734   5.777 -0.1281  2.4022  0.5741
 5176TP3     H215541   3.848   3.731   5.675 -0.1658  0.1449  0.5606
 5177TP3      O15542   0.092   2.955   0.969  0.3736 -0.2734  0.2287
 5177TP3     H115543   0.003   2.945   1.002  0.4249 -0.6678  0.2436
 5177TP3     H215544   0.092   2.910   0.884  0.4117  0.1969 -0.0303
 5178TP3      O15545   0.090   2.393   5.630 -0.0835 -0.3955  0.1454
 5178TP3     H115546   0.162   2.343   5.666 -1.0601 -0.8869  1.5101
 5178TP3     H215547   0.118   2.485   5.637  1.0472 -0.6442 -0.8726
 5179TP3      O15548   4.686   2.549   0.552  0.0133  0.2793  0.1230
 5179TP3     H115549   4.717   2.638   0.537  0.6553 -0.0778 -0.7504
 5179TP3     H215550   4.599   2.547   0.513 -0.4886  0.8406  1.1783
 5180TP3      O15551   5.737   2.665   1.020  0.1773  0.2339 -0.5471
 5180TP3     H115552   5.799   2.622   1.079  1.4233  0.3735 -1.6920
 5180TP3     H215553   5.719   2.750   1.061 -2.4122 -1.2801  1.8064
 5181TP3      O15554   5.543   2.913   1.271  0.6967  0.2594 -0.1513
 5181TP3     H115555   5.468   2.894   1.327  0.3397 -0.6351 -0.9260
 5181TP3     H215556   5.539   3.008   1.258 -0.6922  0.1364 -0.7281
 5182TP3      O15557   5.310   2.789   1.497  0.5591 -0.0581 -0.3156
 5182TP3     H115558   5.311   2.763   1.589  1.3641  2.0876  0.3551
 5182TP3     H215559   5.276   2.713   1.451  2.5811 -2.2096  1.4416
 5183TP3      O15560   4.802   3.422   0.494 -0.0607 -0.3922 -0.0595
 5183TP3     H115561   4.864   3.351   0.475 -1.2344 -1.2137 -0.9926
 5183TP3     H215562   4.784   3.413   0.588  1.3971  0.0231  0.2865
 5184TP3      O15563   5.489   3.182   1.230 -0.2777  0.1064 -0.1570
 5184TP3     H115564   5.411   3.168   1.284  0.2601  0.1021  0.6308
 5184TP3     H215565   5.561   3.189   1.293  0.1440  1.6989 -0.7741
 5185TP3      O15566   5.268   1.234   0.846  0.3665  0.0375 -0.2121
 5185TP3     H115567   5.361   1.245   0.861  0.1036  0.6781  1.1480
 5185TP3     H215568   5.232   1.323   0.845 -0.2759 -0.2116 -0.3094
 5186TP3      O15569   5.618   3.137   1.457 -0.2418  0.2928  0.4209
 5186TP3     H115570   5.609   3.204   1.525 -0.5881 -0.1056  0.7735
 5186TP3     H215571   5.712   3.122   1.450 -0.2479 -0.3526  1.4987
 5187TP3      O15572   4.638   3.774   5.451  0.5127 -0.6516 -0.4082
 5187TP3     H115573   4.593   3.815   5.377 -1.6389 -1.9023  0.1087
 5187TP3     H215574   4.679   3.696   5.413  0.4127 -0.6558 -0.5099
 5188TP3      O15575   5.187   2.262   1.733  0.4577  0.2698 -0.1621
 5188TP3     H115576   5.232   2.180   1.710 -0.0684  0.2130 -1.0452
 5188TP3     H215577   5.100   2.234   1.762 -0.8415  0.6054 -3.3008
 5189TP3      O15578   4.954   2.473   0.535  0.1055  0.1119  0.4117
 5189TP3     H115579   5.003   2.541   0.490 -0.7882  0.7854  0.4383
 5189TP3     H215580   4.865   2.507   0.542  0.0456 -0.2885  2.0238
 5190TP3      O15581   2.909   3.145   0.696 -1.1545 -0.4217  0.4725
 5190TP3     H115582   2.864   3.184   0.771 -0.9685  0.6628  0.0417
 5190TP3     H215583   2.893   3.051   0.704 -1.5713 -0.2673  1.5776
 5191TP3      O15584   5.012   3.137   0.706 -0.4191  0.1234 -0.3047
 5191TP3     H115585   5.069   3.161   0.780  0.1804 -1.5188 -0.1978
 5191TP3     H215586   4.938   3.092   0.746  0.7893 -2.4471 -0.7268
 5192TP3      O15587   4.348   2.189   1.458 -0.0125 -0.7385  0.4387
 5192TP3     H115588   4.286   2.255   1.489  1.2676  0.8649 -0.2639
 5192TP3     H215589   4.315   2.164   1.372  0.5194  0.4599 -0.1410
 5193TP3      O15590   4.461   2.502   0.396 -0.4608 -0.7340 -0.0307
 5193TP3     H115591   4.428   2.420   0.432  1.2708 -2.0359 -1.2046
 5193TP3     H215592   4.398   2.526   0.328 -0.1857 -2.0184 -0.7841
 5194TP3      O15593   4.500   3.621   1.385 -0.0854 -0.3328  0.6416
 5194TP3     H115594   4.566   3.552   1.396  0.7830  0.4640  0.5403
 5194TP3     H215595   4.545   3.690   1.337 -0.1592  1.3731  2.8490
 5195TP3      O15596   4.694   1.381   0.027 -0.0663 -0.1185  0.2537
 5195TP3     H115597   4.701   1.473   0.002  2.0820 -0.6338 -1.3198
 5195TP3     H215598   4.606   1.355  -0.002 -1.6483  1.9024  2.7417
 5196TP3      O15599   4.454   2.828   1.372 -0.4653  0.6321 -0.5243
 5196TP3     H115600   4.446   2.784   1.456 -2.5562  0.5846 -0.6858
 5196TP3     H215601   4.366   2.823   1.334  0.5110  0.2570 -2.9254
 5197TP3      O15602   3.743   2.941   1.352  0.1055 -0.2493 -0.0176
 5197TP3     H115603   3.665   2.944   1.407  0.5591  2.1471  0.6193
 5197TP3     H215604   3.800   2.878   1.395 -0.6203 -0.4067  0.7537
 5198TP3      O15605   5.208   3.049   2.002  0.3076 -0.0022 -0.4181
 5198TP3     H115606   5.168   3.063   1.916 -0.0344  0.4301 -0.1944
 5198TP3     H215607   5.294   3.091   1.995  0.4915 -0.4272 -0.7154
 5199TP3      O15608   4.940   2.317   2.416 -0.6269 -0.5628 -0.9190
 5199TP3     H115609   5.034   2.317   2.434 -0.6142 -1.6618 -0.9428
 5199TP3     H215610   4.920   2.227   2.391 -1.5685 -0.1936 -1.5625
 5200TP3      O15611   4.088   1.579   0.609 -0.2948 -0.1518  0.0013
 5200TP3     H115612   4.089   1.665   0.569  0.3832 -0.2178 -0.1324
 5200TP3     H215613   4.081   1.597   0.703  2.8901  0.2017  0.2818
 5201TP3      O15614   3.616   2.607   0.549  0.3931 -0.0482  0.3304
 5201TP3     H115615   3.546   2.562   0.501 -0.4885  0.0624  1.4786
 5201TP3     H215616   3.571   2.653   0.620  1.5931  0.3553  0.8593
 5202TP3      O15617   4.287   2.506   1.152  0.9865  0.6570  0.1479
 5202TP3     H115618   4.348   2.433   1.140  0.2910  0.1424 -0.3207
 5202TP3     H215619   4.282   2.518   1.247 -1.9149 -2.5749  0.5940
 5203TP3      O15620   5.036   2.106   0.907  0.3057 -0.5899  0.9080
 5203TP3     H115621   4.961   2.165   0.917  0.8223  0.3242 -0.2796
 5203TP3     H215622   5.051   2.103   0.812  2.9048  0.7744  1.1680
 5204TP3      O15623   4.065   1.911   1.187  0.4397  0.0624  0.3130
 5204TP3     H115624   3.980   1.872   1.207  0.7688  0.0698  1.8395
 5204TP3     H215625   4.053   1.952   1.102 -0.9794 -0.2522  0.3392
 5205TP3      O15626   3.868   3.201   1.399 -0.2965 -0.2340  0.2095
 5205TP3     H115627   3.951   3.234   1.433 -0.3950  0.0254  0.2001
 5205TP3     H215628   3.888   3.112   1.369  0.2456  0.2220 -0.8322
 5206TP3      O15629   3.792   3.473   0.418 -0.3240  0.3838 -0.0808
 5206TP3     H115630   3.819   3.540   0.480  1.7891 -0.8322  0.4059
 5206TP3     H215631   3.716   3.433   0.458  1.3836 -0.8386  2.1669
 5207TP3      O15632   0.284   2.885   2.167 -0.2266 -0.1834 -0.1422
 5207TP3     H115633   0.294   2.893   2.262  0.6314 -0.1760 -0.2179
 5207TP3     H215634   0.252   2.971   2.139  3.2321  1.2397 -0.2716
 5208TP3      O15635   4.128   2.130   0.495 -0.3237 -0.7253  0.3624
 5208TP3     H115636   4.208   2.153   0.448  2.0772 -3.1295  2.9043
 5208TP3     H215637   4.064   2.195   0.465  2.4678  1.2591 -1.9404
 5209TP3      O15638   5.377   2.610   0.227 -0.0646 -0.0264  0.1032
 5209TP3     H115639   5.444   2.610   0.296 -0.2625  2.3791  0.3963
 5209TP3     H215640   5.294   2.613   0.275 -0.3770 -1.8553 -0.2657
 5210TP3      O15641   5.190   2.418   0.892 -0.5609 -0.0877 -0.3399
 5210TP3     H115642   5.193   2.342   0.835 -1.2991  1.7843 -3.1256
 5210TP3     H215643   5.200   2.493   0.833 -0.9490  2.0423  2.0758
 5211TP3      O15644   4.986   2.925   1.592  0.7401 -0.2132  0.1386
 5211TP3     H115645   4.999   2.830   1.585 -0.4139 -0.2542 -2.8800
 5211TP3     H215646   4.956   2.951   1.505 -2.0618  2.4614  1.7402
 5212TP3      O15647   5.711   4.306   2.186 -0.2143 -0.2962 -0.5518
 5212TP3     H115648   5.664   4.267   2.112  0.6709  0.9598 -1.8345
 5212TP3     H215649   5.800   4.319   2.154  0.2464  0.1175  0.8091
 5213TP3      O15650   4.790   2.808   1.406  0.2199  0.0054 -0.5171
 5213TP3     H115651   4.700   2.832   1.385  0.7186  0.7834 -1.8913
 5213TP3     H215652   4.834   2.805   1.321  1.4197 -0.6757  0.1068
 5214TP3      O15653   0.197   3.256   5.680 -0.3155  0.0910  0.5402
 5214TP3     H115654   0.161   3.302   5.604  0.1160  0.9301  0.8278
 5214TP3     H215655   0.130   3.192   5.704 -0.4813 -0.1403 -0.5079
 5215TP3      O15656   4.963   3.192   0.437 -0.2418 -0.2581  0.0063
 5215TP3     H115657   4.989   3.170   0.526  1.1346  1.0194 -0.0289
 5215TP3     H215658   5.034   3.248   0.404 -1.1149 -0.0101 -1.5976
 5216TP3      O15659   0.012   3.404   1.413 -0.1498 -0.0442  0.0990
 5216TP3     H115660   0.040   3.490   1.382  0.2978  0.3614  1.5350
 5216TP3     H215661   0.048   3.342   1.349 -0.0342  0.7918 -0.6630
 5217TP3      O15662   4.365   1.826   0.778 -0.1972 -0.2567  0.2719
 5217TP3     H115663   4.294   1.885   0.803  1.1289  1.3796  0.4249
 5217TP3     H215664   4.363   1.825   0.683 -0.0382  0.3482  0.2525
 5218TP3      O15665   4.106   1.972   0.190  0.0990 -0.1445 -0.0852
 5218TP3     H115666   4.013   1.983   0.171  0.2025  0.0031 -0.5097
 5218TP3     H215667   4.135   2.059   0.217  0.3526  0.0644 -1.0018
 5219TP3      O15668   5.070   3.134   0.978 -0.1260 -0.2858 -0.0924
 5219TP3     H115669   5.140   3.085   1.020 -0.3071 -0.3839  0.0966
 5219TP3     H215670   5.101   3.225   0.979 -0.1938 -0.2656  0.3895
 5220TP3      O15671   5.913   2.079   2.090  0.2502 -0.0624  0.1012
 5220TP3     H115672   6.003   2.095   2.119  1.4953 -0.3305 -3.2131
 5220TP3     H215673   5.863   2.069   2.171  2.5345  3.3846  2.1664
 5221TP3      O15674   4.256   3.911   0.551  0.0570 -0.2005  0.1377
 5221TP3     H115675   4.275   3.957   0.470 -0.4641 -0.3669 -0.0820
 5221TP3     H215676   4.163   3.929   0.568  0.4916  1.0433  1.4628
 5222TP3      O15677   3.635   3.274   0.774 -0.6788  0.0083 -0.6175
 5222TP3     H115678   3.559   3.315   0.814  1.1699  1.9228  1.2060
 5222TP3     H215679   3.628   3.181   0.797 -0.8219  0.6806  2.4353
 5223TP3      O15680   4.802   3.281   1.807  0.0544 -0.1526 -0.1878
 5223TP3     H115681   4.803   3.325   1.892  0.9947 -0.0781 -0.2300
 5223TP3     H215682   4.725   3.224   1.811  0.0149 -0.0561  0.6622
 5224TP3      O15683   3.219   2.424   0.983  0.1786  0.1287  0.3854
 5224TP3     H115684   3.203   2.510   0.943  0.7349  0.4460  0.8300
 5224TP3     H215685   3.253   2.370   0.911  0.7358  0.5623  0.3116
 5225TP3      O15686   3.705   2.342   1.234 -0.3389  0.4008 -0.3944
 5225TP3     H115687   3.782   2.398   1.234  0.5270 -0.7099 -1.8697
 5225TP3     H215688   3.692   2.318   1.142 -0.4935 -1.9920  0.1669
 5226TP3      O15689   4.202   3.678   1.124  0.0972 -0.1055 -0.0489
 5226TP3     H115690   4.186   3.591   1.159  0.1699 -0.1417 -0.1029
 5226TP3     H215691   4.229   3.662   1.033 -1.6664  0.0781 -0.6291
 5227TP3      O15692   4.891   2.219   0.380 -0.2318 -0.0382 -0.4901
 5227TP3     H115693   4.835   2.266   0.318  2.1437  0.6540 -2.2855
 5227TP3     H215694   4.938   2.288   0.428  1.1508 -0.5068 -1.0932
 5228TP3      O15695   5.684   2.397   1.730  0.1528  0.2037  0.2035
 5228TP3     H115696   5.778   2.409   1.713  0.4977 -0.5615  1.4461
 5228TP3     H215697   5.680   2.325   1.794 -1.2704  0.3523  0.3138
 5229TP3      O15698   4.176   3.538   1.894 -0.3631 -0.2986 -0.1686
 5229TP3     H115699   4.131   3.456   1.913 -1.7407  0.4304 -0.1096
 5229TP3     H215700   4.258   3.533   1.943 -0.5076 -1.5466 -0.0204
 5230TP3      O15701   4.957   1.872   1.779 -0.5312  0.3510 -0.3503
 5230TP3     H115702   4.891   1.819   1.735 -2.3541  1.5518  0.8096
 5230TP3     H215703   5.004   1.810   1.835  0.5238 -0.8216 -2.3843
 5231TP3      O15704   4.923   3.438   2.318 -0.1146  0.4903  0.2559
 5231TP3     H115705   4.896   3.355   2.279 -0.8114  1.2417 -0.9185
 5231TP3     H215706   4.882   3.439   2.404 -2.0834  0.6109 -0.6190
 5232TP3      O15707   3.826   2.404   0.151 -0.6839  0.1118  0.0189
 5232TP3     H115708   3.766   2.371   0.084 -1.2777 -1.1576  1.1296
 5232TP3     H215709   3.835   2.497   0.131 -2.8652  0.3146 -0.3154
 5233TP3      O15710   4.028   3.915   2.092 -0.4060 -0.7799  0.6996
 5233TP3     H115711   4.037   3.950   2.181 -1.4017 -0.6948  0.7805
 5233TP3     H215712   4.112   3.874   2.074 -0.3828 -1.3234  1.9154
 5234TP3      O15713   5.500   3.136   0.959 -0.1506 -0.4388 -0.3882
 5234TP3     H115714   5.579   3.082   0.952  0.1831  0.1028 -0.9075
 5234TP3     H215715   5.488   3.148   1.053  1.4829  1.0348 -0.3194
 5235TP3      O15716   3.857   2.505   5.284  0.6554 -0.2061 -0.2443
 5235TP3     H115717   3.875   2.571   5.217 -0.5023  0.8320  0.4211
 5235TP3     H215718   3.917   2.526   5.355  1.9801 -1.3917 -0.9698
 5236TP3      O15719   5.949   4.169   1.860 -0.3564  0.1656 -0.3307
 5236TP3     H115720   5.860   4.195   1.884 -0.9233 -2.2579  0.5096
 5236TP3     H215721   5.997   4.168   1.943 -0.5101 -1.7965 -0.2136
 5237TP3      O15722   4.475   3.788   0.620  0.5744 -0.2387 -0.5498
 5237TP3     H115723   4.448   3.732   0.693  0.4265 -0.7357 -0.9872
 5237TP3     H215724   4.395   3.836   0.597  0.6035 -0.1337 -0.4344
 5238TP3      O15725   3.584   3.778   0.444 -0.4140 -0.6808 -0.5445
 5238TP3     H115726   3.493   3.807   0.444 -0.2903 -0.2337  1.2428
 5238TP3     H215727   3.608   3.779   0.351 -2.1849 -0.7377 -1.0553
 5239TP3      O15728   4.487   3.071   1.628  0.0893 -0.4374 -0.0194
 5239TP3     H115729   4.415   3.020   1.590 -0.0051  0.0860 -0.5464
 5239TP3     H215730   4.566   3.034   1.590  0.2259 -1.8630  1.5121
 5240TP3      O15731   5.566   2.627   0.427 -0.6284 -0.3037 -0.4080
 5240TP3     H115732   5.623   2.571   0.480 -0.4042  1.2018  1.0169
 5240TP3     H215733   5.558   2.708   0.477 -4.0142 -0.4170 -0.5488
 5241TP3      O15734   5.485   2.036   5.629  0.7517 -0.2416 -0.0598
 5241TP3     H115735   5.463   2.122   5.665 -1.7915 -1.6021  1.9196
 5241TP3     H215736   5.569   2.015   5.669  0.5349  0.5686  0.8879
 5242TP3      O15737   5.168   3.642   0.806  0.5975  0.1378  0.2319
 5242TP3     H115738   5.104   3.587   0.852 -1.4803  1.3952 -0.9621
 5242TP3     H215739   5.173   3.722   0.858  0.4693  0.4033 -0.1576
 5243TP3      O15740   4.033   3.246   1.634 -0.0160 -0.0704  0.2550
 5243TP3     H115741   3.955   3.191   1.634 -0.0692  0.0071  0.5331
 5243TP3     H215742   4.034   3.288   1.720  1.2500 -1.3624  0.9071
 5244TP3      O15743   5.177   3.318   0.327 -0.0178  0.1035 -0.5429
 5244TP3     H115744   5.262   3.340   0.364 -0.4775  0.3416  0.4019
 5244TP3     H215745   5.153   3.394   0.274  0.2565  0.1362 -0.6185
 5245TP3      O15746   4.596   2.452   1.749  0.1372 -0.0995  0.3382
 5245TP3     H115747   4.607   2.489   1.661 -1.5604  0.8011  0.4658
 5245TP3     H215748   4.680   2.468   1.792  0.6101  0.4780 -0.7545
 5246TP3      O15749   5.416   3.461   5.882  0.1849 -0.4960 -0.0143
 5246TP3     H115750   5.326   3.430   5.877 -0.6045  1.3805  1.3142
 5246TP3     H215751   5.465   3.387   5.919 -0.9132 -1.3130 -0.1475
 5247TP3      O15752   5.417   3.675   1.390 -0.3672 -0.1872  0.5494
 5247TP3     H115753   5.475   3.714   1.325  0.2056 -1.7478  0.0762
 5247TP3     H215754   5.345   3.738   1.399 -0.5326  0.0272 -1.6826
 5248TP3      O15755   5.340   2.410   0.532  0.1986 -0.4900  0.1358
 5248TP3     H115756   5.291   2.489   0.508  0.5359 -0.2910  0.0817
 5248TP3     H215757   5.432   2.438   0.528  0.3219 -0.9013  0.0695
 5249TP3      O15758   3.808   2.012   0.163  0.0962 -0.1289  0.5907
 5249TP3     H115759   3.773   2.056   0.240  0.4933  0.3858  0.4851
 5249TP3     H215760   3.781   1.921   0.173  3.1480 -0.9576  3.2358
 5250TP3      O15761   5.092   4.228   0.621 -0.0080 -0.2174 -0.1325
 5250TP3     H115762   5.137   4.288   0.561  0.9928 -0.6728  0.1564
 5250TP3     H215763   5.143   4.148   0.618 -0.8530 -0.7786  0.1485
 5251TP3      O15764   4.590   3.379   1.384  0.1279  0.2502 -0.0162
 5251TP3     H115765   4.659   3.324   1.421  0.9798  1.4532  0.2413
 5251TP3     H215766   4.510   3.327   1.395  1.0783 -1.5286 -1.0892
 5252TP3      O15767   4.401   2.232   5.918 -0.1775  0.0765  0.7153
 5252TP3     H115768   4.316   2.277   5.915 -0.5034 -0.5594  0.2624
 5252TP3     H215769   4.433   2.236   5.828  1.2296  2.0782  1.2394
 5253TP3      O15770   5.819   3.030   0.426 -0.4146  0.1011 -1.0025
 5253TP3     H115771   5.851   3.101   0.483 -1.9403  0.9309 -1.1472
 5253TP3     H215772   5.760   2.980   0.482 -1.8413  0.8581 -1.7733
 5254TP3      O15773   3.416   3.101   1.733  0.3338 -0.4305  0.1488
 5254TP3     H115774   3.472   3.141   1.666 -0.1921  1.0564  0.5413
 5254TP3     H215775   3.386   3.020   1.694 -0.3603  0.6227 -1.6420
 5255TP3      O15776   5.168   2.609   1.334 -0.5172 -0.5119 -1.0260
 5255TP3     H115777   5.102   2.567   1.279 -0.3791 -0.5893 -1.1363
 5255TP3     H215778   5.192   2.541   1.397 -1.0969 -0.2337 -0.4960
 5256TP3      O15779   5.128   3.751   0.288  0.3682  0.2276 -0.1586
 5256TP3     H115780   5.151   3.722   0.376 -2.6307 -1.1633  0.2928
 5256TP3     H215781   5.043   3.796   0.300 -0.2567 -0.2765 -2.3552
 5257TP3      O15782   5.787   2.703   0.242 -0.1007 -0.3189  0.2235
 5257TP3     H115783   5.725   2.665   0.304  0.3161  1.2709  1.6772
 5257TP3     H215784   5.860   2.642   0.241 -1.3687 -1.9289 -1.0834
 5258TP3      O15785   4.144   3.359   0.209 -0.0216  0.5041  0.0149
 5258TP3     H115786   4.075   3.296   0.230  0.7243  0.1988  1.7807
 5258TP3     H215787   4.114   3.442   0.246  0.0043  0.6707 -0.3281
 5259TP3      O15788   4.980   2.771   0.682 -0.8554  0.4078 -0.2877
 5259TP3     H115789   4.928   2.818   0.747 -0.6368  1.9798 -1.2159
 5259TP3     H215790   5.042   2.720   0.734  1.0409  3.5821  0.8072
 5260TP3      O15791   2.844   2.712   1.381 -0.5460 -0.5458  0.8080
 5260TP3     H115792   2.814   2.664   1.303  0.0282 -1.2446  1.0064
 5260TP3     H215793   2.897   2.784   1.346  0.8748 -1.6614  0.5595
 5261TP3      O15794   4.377   2.943   2.149  0.3603  0.2395 -0.6541
 5261TP3     H115795   4.382   2.852   2.179 -2.3228 -0.1661 -1.1402
 5261TP3     H215796   4.458   2.983   2.180  0.5550 -1.7152  1.6648
 5262TP3      O15797   4.469   2.330   0.733 -0.0203 -0.3898 -0.0622
 5262TP3     H115798   4.508   2.285   0.808  2.6123  2.4133  0.4598
 5262TP3     H215799   4.522   2.301   0.658 -1.0581 -1.2928 -0.4782
 5263TP3      O15800   3.573   2.497   0.070  0.4576  0.1093  0.5075
 5263TP3     H115801   3.515   2.498  -0.006  2.9752  1.6363 -1.5513
 5263TP3     H215802   3.594   2.590   0.085  0.9068 -0.2590  2.3615
 5264TP3      O15803   4.659   2.125   1.243 -0.1251  0.5599  0.0154
 5264TP3     H115804   4.726   2.064   1.212  0.7670  1.8760 -0.7321
 5264TP3     H215805   4.578   2.073   1.245  0.7845 -0.9092  0.4079
 5265TP3      O15806   4.704   2.419   0.257 -0.3417 -0.2727 -0.7535
 5265TP3     H115807   4.756   2.496   0.234 -0.4810  1.2432  3.1657
 5265TP3     H215808   4.626   2.456   0.299 -1.3969 -2.5806 -0.5579
 5266TP3      O15809   5.203   3.711   1.115 -0.3173  0.2305 -0.1475
 5266TP3     H115810   5.123   3.667   1.088 -1.5319  1.6434  1.0090
 5266TP3     H215811   5.270   3.643   1.111 -1.6356 -1.0920 -0.7117
 5267TP3      O15812   5.057   2.444   1.142  0.8764 -0.4223  0.4347
 5267TP3     H115813   5.095   2.460   1.056 -1.5658 -1.6761 -1.0116
 5267TP3     H215814   5.108   2.371   1.177  0.4324 -1.5196 -1.0705
 5268TP3      O15815   5.129   3.513   0.123  0.2275  0.1911 -1.0893
 5268TP3     H115816   5.143   3.608   0.127 -2.5335  0.7566 -2.2607
 5268TP3     H215817   5.131   3.493   0.029 -1.6274 -0.4048 -1.0436
 5269TP3      O15818   4.436   2.751   1.630 -0.2188 -0.5074  0.0003
 5269TP3     H115819   4.369   2.774   1.694 -0.8029  0.4208 -0.9213
 5269TP3     H215820   4.517   2.744   1.681 -0.6450  0.3544  0.8102
 5270TP3      O15821   0.654   2.953   1.534 -0.3505 -0.2214  0.2964
 5270TP3     H115822   0.649   2.908   1.619  0.6935 -1.5386 -0.3109
 5270TP3     H215823   0.642   3.045   1.556 -0.9334 -0.6204  1.7791
 5271TP3      O15824   3.923   3.614   0.808  0.1545  0.0952  0.7051
 5271TP3     H115825   3.998   3.674   0.804  0.8783 -0.8110  0.1486
 5271TP3     H215826   3.863   3.647   0.742 -0.0571  0.9696  1.3163
 5272TP3      O15827   5.561   3.653   0.870  0.1151 -0.0370  0.2929
 5272TP3     H115828   5.657   3.651   0.873  0.0939 -1.1440  2.3951
 5272TP3     H215829   5.538   3.579   0.813  0.4579  0.9501 -1.2098
 5273TP3      O15830   5.216   2.170   0.007  1.0542  0.5285 -0.2734
 5273TP3     H115831   5.235   2.257   0.042  0.9274 -0.6622  3.1595
 5273TP3     H215832   5.156   2.131   0.071  0.7489 -1.9538 -1.9134
 5274TP3      O15833   3.362   2.586   0.346  0.4203  0.3553 -0.4182
 5274TP3     H115834   3.291   2.521   0.354  0.9437 -0.2869 -0.9383
 5274TP3     H215835   3.339   2.638   0.270 -1.5382  2.7379  1.6066
 5275TP3      O15836   5.619   1.913   1.606  0.2828 -0.0208  0.0535
 5275TP3     H115837   5.545   1.865   1.568  0.8054 -0.3561 -0.5718
 5275TP3     H215838   5.684   1.846   1.626  1.2330  0.4301 -1.3067
 5276TP3      O15839   5.588   2.766   2.390 -0.4480  0.0972  0.1460
 5276TP3     H115840   5.643   2.698   2.428 -0.3768  0.1345  0.1107
 5276TP3     H215841   5.631   2.848   2.415  1.0129  0.1057 -2.0585
 5277TP3      O15842   3.779   4.192   0.090  0.3523 -0.8795  0.7441
 5277TP3     H115843   3.837   4.173   0.016  1.1793 -1.2440  1.4531
 5277TP3     H215844   3.696   4.219   0.050  1.6047  1.7728 -0.3748
 5278TP3      O15845   4.832   3.661   0.714 -0.2303 -0.1671  0.1713
 5278TP3     H115846   4.793   3.727   0.771 -0.3082 -1.0319  1.1403
 5278TP3     H215847   4.759   3.602   0.692 -0.4771  0.7886 -1.8026
 5279TP3      O15848   4.863   2.777   1.142  0.2760 -0.3807  0.1482
 5279TP3     H115849   4.827   2.690   1.122 -1.2677 -0.1429  1.7056
 5279TP3     H215850   4.914   2.800   1.064  0.1344 -2.3766 -0.5819
 5280TP3      O15851   4.600   3.052   5.691 -0.2902 -0.0199  0.0528
 5280TP3     H115852   4.654   2.999   5.633 -0.0317  0.4928 -0.1825
 5280TP3     H215853   4.619   3.019   5.779  0.3626  0.1149 -0.0306
 5281TP3      O15854   0.372   3.798   0.851  0.5719  0.1197  0.8024
 5281TP3     H115855   0.294   3.823   0.802  0.1917 -2.6160 -0.1367
 5281TP3     H215856   0.440   3.857   0.819 -1.1919  3.2794  2.3724
 5282TP3      O15857   4.686   2.758   1.715 -0.2715  0.3885 -0.2408
 5282TP3     H115858   4.717   2.765   1.625  0.2474  0.2243 -0.0768
 5282TP3     H215859   4.761   2.782   1.769 -0.4416  0.0420  0.1590
 5283TP3      O15860   3.506   2.904   0.632 -0.1961 -0.2090  0.2545
 5283TP3     H115861   3.515   2.922   0.726 -0.5013  1.4342  0.0035
 5283TP3     H215862   3.578   2.952   0.591 -2.8815  3.4355 -0.7370
 5284TP3      O15863   4.345   3.574   1.595 -0.1177  0.2993  0.6329
 5284TP3     H115864   4.398   3.601   1.519 -0.2085 -0.6321  0.2202
 5284TP3     H215865   4.295   3.652   1.618 -2.1260 -0.0882 -1.9676
 5285TP3      O15866   5.072   1.977   0.168  0.6273 -0.2195  0.0159
 5285TP3     H115867   5.105   1.907   0.224 -1.9513 -1.6038 -0.0393
 5285TP3     H215868   4.979   1.983   0.190  0.4315  2.1454 -1.1296
 5286TP3      O15869   4.041   1.841   0.843  0.6946  0.0499  0.6600
 5286TP3     H115870   3.948   1.819   0.837  1.1684 -2.0068  0.3752
 5286TP3     H215871   4.083   1.761   0.874  2.5571  0.4951 -0.5690
 5287TP3      O15872   5.054   3.660   0.542  0.1254 -0.1810  0.1625
 5287TP3     H115873   4.966   3.697   0.549  0.4754  0.6142  0.5187
 5287TP3     H215874   5.069   3.620   0.628  0.8765  1.4886  0.8644
 5288TP3      O15875   3.991   2.484   1.142  0.0089 -0.1680 -0.0991
 5288TP3     H115876   3.993   2.511   1.234  0.1286 -2.9900  0.7989
 5288TP3     H215877   4.083   2.471   1.119 -0.1100 -0.9540 -0.1368
 5289TP3      O15878   4.054   2.550   0.481  0.0671  0.6649  0.4893
 5289TP3     H115879   4.002   2.601   0.543  0.5974 -0.4095  1.8663
 5289TP3     H215880   4.135   2.530   0.528  1.2914  1.3547 -1.2128
 5290TP3      O15881   5.026   2.075   1.426  0.4550  0.5425  0.3866
 5290TP3     H115882   4.946   2.122   1.449  0.3439 -0.2336  1.6996
 5290TP3     H215883   5.069   2.058   1.510  1.0980 -0.6115 -0.1500
 5291TP3      O15884   4.970   2.187   2.131  0.2423  0.2593 -0.0607
 5291TP3     H115885   5.015   2.119   2.181  0.5893  0.5674  0.0485
 5291TP3     H215886   5.024   2.264   2.141  0.3617  0.3099 -0.9805
 5292TP3      O15887   4.664   3.418   0.736  0.0384  0.1906  0.3376
 5292TP3     H115888   4.595   3.444   0.797 -0.3013  0.3548 -0.1114
 5292TP3     H215889   4.683   3.326   0.759 -0.5437  0.0483  0.2616
 5293TP3      O15890   4.387   3.252   0.080 -0.0385  0.9629  0.5215
 5293TP3     H115891   4.306   3.253   0.130 -0.6857  0.7243 -0.5169
 5293TP3     H215892   4.371   3.192   0.008  0.6186  1.8611 -0.4087
 5294TP3      O15893   5.098   1.730   0.314 -0.3947  0.3845 -0.0768
 5294TP3     H115894   5.128   1.754   0.401  1.4329 -0.3803 -0.4577
 5294TP3     H215895   5.049   1.649   0.327 -0.0781  0.2424  0.2388
 5295TP3      O15896   5.089   2.886   1.317  0.3244  0.0383 -0.8147
 5295TP3     H115897   5.156   2.914   1.380 -0.1774  0.6558 -0.5371
 5295TP3     H215898   5.077   2.793   1.334 -0.1489  0.2916  0.3571
 5296TP3      O15899   5.875   2.113   1.012  0.4444 -0.1635  0.1181
 5296TP3     H115900   5.901   2.144   0.925  1.1066  2.2579  1.1016
 5296TP3     H215901   5.811   2.178   1.043 -0.6091 -1.5771  1.0250
 5297TP3      O15902   3.550   2.847   0.232  0.1165 -0.4511 -0.2774
 5297TP3     H115903   3.603   2.805   0.166  0.1613 -1.1408  0.1868
 5297TP3     H215904   3.555   2.789   0.308  0.8070  0.7508  0.6518
 5298TP3      O15905   4.388   3.412   5.424  0.4020  0.1017  0.1967
 5298TP3     H115906   4.359   3.454   5.506 -0.1719 -0.4528  0.2904
 5298TP3     H215907   4.459   3.353   5.451  1.3079  1.1081  0.0416
 5299TP3      O15908   3.638   1.649   2.199  0.6768  0.3192  0.3388
 5299TP3     H115909   3.708   1.643   2.265  0.7181 -1.7906  0.1743
 5299TP3     H215910   3.684   1.642   2.115  0.4387  0.9975  0.1459
 5300TP3      O15911   4.151   1.943   2.872  0.3486 -0.6855  0.0923
 5300TP3     H115912   4.116   1.937   2.961  0.2731  0.6135  0.1703
 5300TP3     H215913   4.124   1.861   2.830 -0.6619 -0.7956  0.9032
 5301TP3      O15914   3.499   2.247   3.082  0.7902 -0.2774 -0.2906
 5301TP3     H115915   3.414   2.272   3.119 -0.3684 -1.0686 -2.2347
 5301TP3     H215916   3.481   2.233   2.989  2.6226 -2.4391 -0.4012
 5302TP3      O15917   4.821   2.576   2.465  0.5827  0.0866 -0.4996
 5302TP3     H115918   4.862   2.585   2.551  0.5422  0.5223 -0.5215
 5302TP3     H215919   4.855   2.494   2.430  3.0658  1.3707 -1.3754
 5303TP3      O15920   4.554   3.246   2.774  0.6080  0.4877  0.4503
 5303TP3     H115921   4.498   3.274   2.702 -0.1607  2.3047  1.6900
 5303TP3     H215922   4.624   3.197   2.731 -2.0792 -2.3262 -1.1264
 5304TP3      O15923   5.307   2.323   3.076 -0.4332  0.2603 -0.3326
 5304TP3     H115924   5.296   2.255   3.142 -0.5582 -0.1330 -0.7538
 5304TP3     H215925   5.335   2.276   2.998 -2.5726  0.3902 -1.2412
 5305TP3      O15926   5.973   2.775   2.353 -0.3041 -0.3547 -0.4884
 5305TP3     H115927   5.932   2.689   2.364 -0.1665 -0.2197  1.3368
 5305TP3     H215928   5.949   2.802   2.264 -1.4336 -1.7093 -0.6226
 5306TP3      O15929   3.562   3.368   1.869 -0.4068 -0.1281 -0.5689
 5306TP3     H115930   3.471   3.337   1.866 -0.5878  0.3969 -0.6869
 5306TP3     H215931   3.590   3.369   1.778 -0.2470 -0.3826 -0.5241
 5307TP3      O15932   5.946   2.081   4.583  0.1961  0.6927  0.3672
 5307TP3     H115933   5.868   2.061   4.635 -0.6713 -0.0755 -1.1708
 5307TP3     H215934   6.019   2.060   4.642 -0.7414 -0.8662  1.0404
 5308TP3      O15935   5.456   2.151   2.080 -0.1684  0.5783 -0.2748
 5308TP3     H115936   5.372   2.107   2.083  1.0728 -1.9728 -0.5680
 5308TP3     H215937   5.499   2.128   2.162  0.6532  1.0035 -0.5727
 5309TP3      O15938   4.632   2.708   3.417 -0.6285  0.4036  0.0521
 5309TP3     H115939   4.638   2.654   3.338  0.1828  1.5245 -0.6756
 5309TP3     H215940   4.561   2.770   3.398  0.8172  1.9309 -0.6365
 5310TP3      O15941   3.415   3.862   2.236  0.2444 -0.4396 -0.0090
 5310TP3     H115942   3.360   3.786   2.214  0.4383 -0.5375 -0.1545
 5310TP3     H215943   3.462   3.834   2.315 -0.1828 -0.2214  0.3292
 5311TP3      O15944   5.288   3.629   3.060  0.8263 -0.4421  0.1731
 5311TP3     H115945   5.259   3.570   3.130  0.6849  0.6499  1.0734
 5311TP3     H215946   5.323   3.705   3.107 -3.1038  2.2541 -0.7958
 5312TP3      O15947   3.845   1.918   2.627 -0.2919  0.1694 -0.0770
 5312TP3     H115948   3.839   1.923   2.723  1.0561  1.5091 -0.0303
 5312TP3     H215949   3.905   1.846   2.611  2.3708  2.1695  0.2745
 5313TP3      O15950   5.681   0.192   2.410 -0.5932 -0.1481  0.3503
 5313TP3     H115951   5.733   0.113   2.409  0.8845  0.7645  1.3615
 5313TP3     H215952   5.597   0.166   2.372  0.0528 -2.0250  0.1134
 5314TP3      O15953   3.589   3.490   2.759 -0.1759 -0.1438  0.9290
 5314TP3     H115954   3.616   3.554   2.824  1.8685  0.6936 -0.6341
 5314TP3     H215955   3.670   3.464   2.715 -1.4100 -0.9599 -1.0312
 5315TP3      O15956   4.986   2.808   2.955 -0.4177  0.0750  0.5603
 5315TP3     H115957   5.022   2.892   2.984 -0.1349  0.2218 -0.1811
 5315TP3     H215958   4.936   2.776   3.030 -2.3876  1.9295  0.1352
 5316TP3      O15959   4.420   2.879   2.545  0.2434 -0.1442 -0.0678
 5316TP3     H115960   4.337   2.870   2.497  0.4848 -0.6349 -0.4059
 5316TP3     H215961   4.487   2.849   2.483  0.6174 -0.2698  0.3903
 5317TP3      O15962   3.558   2.526   3.189  0.3542  0.5415 -0.3824
 5317TP3     H115963   3.588   2.556   3.275  0.1153  1.5202 -0.6260
 5317TP3     H215964   3.528   2.437   3.204  0.4665  0.6399  0.5140
 5318TP3      O15965   4.107   4.144   3.683  0.3562  0.3853 -0.2062
 5318TP3     H115966   4.158   4.220   3.657  1.0614 -0.1185 -0.3236
 5318TP3     H215967   4.169   4.089   3.731 -0.5816  0.7124  1.4789
 5319TP3      O15968   4.206   3.161   2.170 -0.0725 -0.0361 -0.3474
 5319TP3     H115969   4.138   3.108   2.211  2.0548 -0.3899  3.2174
 5319TP3     H215970   4.274   3.097   2.146  0.7115  0.6172  0.0622
 5320TP3      O15971   5.503   1.385   3.580 -0.0500  0.5117  0.3108
 5320TP3     H115972   5.477   1.349   3.495  0.6712 -0.5774  0.5280
 5320TP3     H215973   5.534   1.309   3.629 -1.3961  0.9507  1.9313
 5321TP3      O15974   3.695   3.074   2.863  0.3949  0.6761  0.1439
 5321TP3     H115975   3.699   3.114   2.776 -2.6856  1.2125  0.1414
 5321TP3     H215976   3.701   2.980   2.847 -0.1202  0.7753 -0.6697
 5322TP3      O15977   5.677   3.490   1.817  0.3444  0.3269 -0.0192
 5322TP3     H115978   5.678   3.535   1.732 -0.0160 -1.4853 -1.0343
 5322TP3     H215979   5.757   3.520   1.860 -0.3730  2.7041 -0.1676
 5323TP3      O15980   4.123   3.760   1.765  0.4797 -0.0942  0.4904
 5323TP3     H115981   4.126   3.672   1.802  1.5362 -0.2168  0.1459
 5323TP3     H215982   4.082   3.813   1.834  0.4304 -0.7318  0.9611
 5324TP3      O15983   4.752   2.634   2.079 -0.0371  0.1533 -0.3990
 5324TP3     H115984   4.804   2.676   2.148 -0.6470  0.7097 -0.2702
 5324TP3     H215985   4.807   2.638   2.001  0.2984  0.3227 -0.1544
 5325TP3      O15986   5.802   2.018   2.320  0.5666  0.7941 -0.6155
 5325TP3     H115987   5.866   1.948   2.308  1.8200  1.9516 -0.8810
 5325TP3     H215988   5.720   1.972   2.338  1.6164 -0.7097  0.5814
 5326TP3      O15989   3.353   1.788   3.232  0.1679  0.3554 -0.0232
 5326TP3     H115990   3.349   1.779   3.137  0.2734  0.4682 -0.0382
 5326TP3     H215991   3.289   1.856   3.253 -1.1763 -0.9015  0.1602
 5327TP3      O15992   4.803   2.320   3.093  0.5794 -0.2233 -0.5685
 5327TP3     H115993   4.749   2.247   3.062  1.3618 -0.5815 -1.1033
 5327TP3     H215994   4.744   2.396   3.090 -0.2238 -0.8054 -0.0624
 5328TP3      O15995   4.550   3.143   3.322  0.0731 -0.7050 -0.5539
 5328TP3     H115996   4.642   3.133   3.346  0.3331 -0.6631 -1.4991
 5328TP3     H215997   4.514   3.055   3.328  0.0774 -0.6583  0.1944
 5329TP3      O15998   4.552   1.693   2.862 -0.1882 -0.2163  0.2354
 5329TP3     H115999   4.612   1.766   2.853 -0.7806  0.1749 -0.6394
 5329TP3     H216000   4.586   1.626   2.804 -0.6773  0.0691 -0.3919
 5330TP3      O16001   4.018   2.274   3.526 -1.0078  0.0420 -0.3298
 5330TP3     H116002   4.030   2.322   3.444 -1.5272 -0.8006 -0.9109
 5330TP3     H216003   4.082   2.313   3.586 -0.7210  0.7615 -1.0879
 5331TP3      O16004   4.700   2.513   1.471 -0.2770 -0.1028  0.1249
 5331TP3     H116005   4.689   2.605   1.447 -0.9089  0.1095  1.1858
 5331TP3     H216006   4.784   2.488   1.431 -0.0682  0.9447 -0.1219
 5332TP3      O16007   5.178   3.391   3.565 -0.3389 -0.1870  0.6270
 5332TP3     H116008   5.142   3.335   3.634  0.2095  0.4735  1.4782
 5332TP3     H216009   5.133   3.364   3.485 -2.6154  0.5300  1.6008
 5333TP3      O16010   4.433   2.315   4.317 -0.1769  1.0293 -0.0618
 5333TP3     H116011   4.374   2.243   4.339  0.5239  0.4242 -0.1295
 5333TP3     H216012   4.421   2.379   4.388  0.5126  0.0398  0.9948
 5334TP3      O16013   0.021   3.561   2.680  0.0419 -0.2595  0.6058
 5334TP3     H116014   0.056   3.625   2.742 -0.8050  0.3209  0.5021
 5334TP3     H216015   0.011   3.481   2.731  0.5495 -0.1503  0.8894
 5335TP3      O16016   4.811   4.254   2.868 -0.7342 -0.5601  0.1510
 5335TP3     H116017   4.852   4.328   2.824  0.4541 -0.5294  1.2545
 5335TP3     H216018   4.723   4.285   2.891 -1.2471 -0.4384 -1.7577
 5336TP3      O16019   5.110   2.778   2.022 -0.3177 -0.0308 -0.3793
 5336TP3     H116020   5.133   2.738   2.106 -1.7227  1.2888  0.7041
 5336TP3     H216021   5.132   2.871   2.033 -0.4118  0.1463 -1.5245
 5337TP3      O16022   5.250   1.619   2.341 -0.2275  0.0912 -0.0777
 5337TP3     H116023   5.179   1.598   2.280  0.9934 -2.9407 -0.6248
 5337TP3     H216024   5.314   1.667   2.287 -0.7141  0.5389 -0.2581
 5338TP3      O16025   5.874   3.879   1.777 -0.6993 -0.3449  0.3652
 5338TP3     H116026   5.911   3.944   1.717  0.2765 -0.8226  0.4252
 5338TP3     H216027   5.843   3.930   1.851 -0.6873  0.1307  0.0501
 5339TP3      O16028   4.356   2.225   3.178 -0.3815 -0.5177  1.1869
 5339TP3     H116029   4.266   2.243   3.152 -0.3710 -1.3090  0.5572
 5339TP3     H216030   4.349   2.160   3.248 -0.2789 -1.4906  0.3217
 5340TP3      O16031   5.004   2.354   3.867 -0.7719  0.2839 -0.2621
 5340TP3     H116032   5.044   2.277   3.826 -0.4195  0.4213 -0.1782
 5340TP3     H216033   5.010   2.422   3.800  2.9785  1.5442  1.1248
 5341TP3      O16034   4.874   2.484   4.324  0.2603 -0.8316 -0.2996
 5341TP3     H116035   4.932   2.556   4.348 -0.2555  0.0222 -1.5113
 5341TP3     H216036   4.848   2.445   4.408  0.9367  0.0742  0.3513
 5342TP3      O16037   5.453   2.150   4.026 -0.6959  0.2265  0.2520
 5342TP3     H116038   5.366   2.123   3.998 -0.9256 -1.1307  2.0401
 5342TP3     H216039   5.441   2.177   4.117  0.7974 -0.4113  0.6749
 5343TP3      O16040   4.033   1.756   3.182  0.2531 -0.3410 -0.7741
 5343TP3     H116041   4.003   1.751   3.272 -0.4962  1.8930 -0.8453
 5343TP3     H216042   3.998   1.677   3.140 -0.9373 -0.4934  0.4483
 5344TP3      O16043   3.862   2.537   2.752  0.3852 -0.4938  0.4546
 5344TP3     H116044   3.951   2.515   2.780  0.4880  0.7328  1.1598
 5344TP3     H216045   3.817   2.452   2.748  1.7581 -1.2272 -0.6551
 5345TP3      O16046   3.851   4.511   4.460 -0.9250  0.7021  0.2809
 5345TP3     H116047   3.863   4.582   4.396 -0.4356  0.0058 -0.4120
 5345TP3     H216048   3.813   4.555   4.537 -0.2529  1.7842  0.0168
 5346TP3      O16049   4.685   2.148   2.587 -0.3953 -0.2646 -0.3119
 5346TP3     H116050   4.625   2.186   2.522  1.3553 -0.5740 -2.1938
 5346TP3     H216051   4.691   2.215   2.655 -0.8879  0.8830 -1.3528
 5347TP3      O16052   4.969   2.366   3.330  0.0177  0.4682 -0.0358
 5347TP3     H116053   4.908   2.349   3.257 -1.2907 -1.7434  1.4368
 5347TP3     H216054   4.917   2.415   3.393  0.2463 -0.0540  0.5668
 5348TP3      O16055   5.751   2.953   1.873  0.7625 -0.0929 -0.0374
 5348TP3     H116056   5.681   2.901   1.912  1.8636 -2.1078 -0.5835
 5348TP3     H216057   5.736   3.042   1.905 -1.0620 -0.7803  1.1694
 5349TP3      O16058   4.408   1.546   3.049 -0.1808 -0.3918 -0.1811
 5349TP3     H116059   4.464   1.551   3.127 -0.5132 -0.3262  0.0535
 5349TP3     H216060   4.452   1.602   2.985 -0.6337  0.6937  0.4238
 5350TP3      O16061   5.171   2.670   2.256  0.3685  0.3538  0.0288
 5350TP3     H116062   5.190   2.604   2.322  1.9027  1.3671  0.6610
 5350TP3     H216063   5.152   2.749   2.307 -2.0509  0.3015 -0.6884
 5351TP3      O16064   4.418   4.241   2.649  0.4871 -0.9319  0.0648
 5351TP3     H116065   4.421   4.336   2.651  1.5066 -0.9546  0.3985
 5351TP3     H216066   4.487   4.216   2.587 -1.8195 -1.4055 -2.5478
 5352TP3      O16067   5.754   2.601   3.329  0.6226  0.1165 -0.3734
 5352TP3     H116068   5.691   2.670   3.309  0.1555  0.1919  1.1912
 5352TP3     H216069   5.837   2.647   3.342  0.3906  0.3606  0.2967
 5353TP3      O16070   0.114   2.708   3.477 -0.0998  0.1483 -0.1007
 5353TP3     H116071   0.117   2.630   3.533  2.1144  0.5365  0.4184
 5353TP3     H216072   0.030   2.749   3.497 -0.5097 -1.1378  0.9648
 5354TP3      O16073   3.768   2.943   1.877  0.7003 -0.5359  0.1697
 5354TP3     H116074   3.847   2.903   1.841  0.8181  0.3262 -0.5806
 5354TP3     H216075   3.696   2.898   1.834  0.8314  0.0925 -0.7225
 5355TP3      O16076   0.061   1.494   2.798  0.3479  0.3111 -0.8975
 5355TP3     H116077   0.113   1.431   2.748  0.3658 -0.6411  0.2572
 5355TP3     H216078  -0.014   1.443   2.829  0.4271  0.8220  0.1726
 5356TP3      O16079   4.636   3.027   4.193 -0.5214  0.9251  0.2377
 5356TP3     H116080   4.572   3.030   4.122 -0.0666 -0.9525 -0.2864
 5356TP3     H216081   4.721   3.024   4.149 -0.2165  0.1528  0.8610
 5357TP3      O16082   5.713   4.177   1.288  0.1372 -0.1575 -0.0987
 5357TP3     H116083   5.655   4.220   1.352  2.2034 -1.1374  2.6466
 5357TP3     H216084   5.788   4.148   1.340  1.4497 -2.0843 -2.8361
 5358TP3      O16085   3.887   1.795   3.449  0.5323  0.1865 -0.2181
 5358TP3     H116086   3.847   1.784   3.535 -2.1197  2.6484 -1.0006
 5358TP3     H216087   3.961   1.853   3.465 -1.1096  2.2590  0.2339
 5359TP3      O16088   5.065   3.370   1.800 -0.2509 -0.1197 -0.0812
 5359TP3     H116089   5.080   3.276   1.809 -1.4645 -0.5456 -2.0217
 5359TP3     H216090   5.148   3.404   1.768 -0.6084 -1.0090 -2.0596
 5360TP3      O16091   3.453   2.634   2.695  0.2222 -0.2106 -0.1069
 5360TP3     H116092   3.446   2.593   2.781 -0.8818 -1.2747 -0.6918
 5360TP3     H216093   3.506   2.573   2.644  1.5955  0.8166  0.0229
 5361TP3      O16094   5.632   1.758   2.601  0.2103  0.2435  0.0400
 5361TP3     H116095   5.643   1.691   2.668 -1.5991  1.3198  1.5326
 5361TP3     H216096   5.683   1.833   2.633 -0.1562  0.5520 -0.0901
 5362TP3      O16097   3.430   4.044   3.321  0.9847  1.2252 -0.3758
 5362TP3     H116098   3.372   3.996   3.262 -1.0016  3.0336 -0.0158
 5362TP3     H216099   3.513   3.996   3.318 -0.1537 -0.7723 -1.8437
 5363TP3      O16100   4.776   3.014   2.950  0.7110 -0.2910  0.2438
 5363TP3     H116101   4.792   2.920   2.950  0.8344 -0.2807  1.0859
 5363TP3     H216102   4.849   3.052   2.902  0.9160 -0.5862  0.3252
 5364TP3      O16103   4.493   2.566   2.247  0.0350  0.3929  0.6281
 5364TP3     H116104   4.521   2.488   2.198  2.4944  0.5213  1.6403
 5364TP3     H216105   4.402   2.548   2.271  1.0506 -3.2353  2.6214
 5365TP3      O16106   5.981   2.359   3.933  0.0007  0.0131  0.1683
 5365TP3     H116107   5.913   2.324   3.876  1.5642 -1.2748 -0.9797
 5365TP3     H216108   5.996   2.291   3.998  0.1986  0.2826  0.4102
 5366TP3      O16109   3.695   2.210   2.259  0.3375 -0.3497 -0.7002
 5366TP3     H116110   3.607   2.181   2.235  0.6422 -0.9252 -1.1223
 5366TP3     H216111   3.740   2.130   2.287  1.4454 -0.4606 -2.6582
 5367TP3      O16112   3.561   1.240   4.090 -0.4287  0.1677 -0.3112
 5367TP3     H116113   3.552   1.293   4.011 -0.2050  0.6964  0.0182
 5367TP3     H216114   3.591   1.301   4.157 -1.1396 -0.1597  0.3238
 5368TP3      O16115   3.850   3.024   3.684  0.7795 -0.0355 -0.4999
 5368TP3     H116116   3.804   3.099   3.724 -0.0035 -0.9199  0.3088
 5368TP3     H216117   3.865   2.964   3.757 -0.3197 -1.5111 -1.4338
 5369TP3      O16118   5.221   3.463   3.271 -0.2548  0.1325  0.2041
 5369TP3     H116119   5.183   3.392   3.218 -0.6007 -0.5165  1.2799
 5369TP3     H216120   5.306   3.428   3.300  0.3958  0.8858 -0.7422
 5370TP3      O16121   5.137   3.766   2.548 -0.3968  0.1920  0.3772
 5370TP3     H116122   5.208   3.725   2.597 -1.0291 -0.7560  0.5118
 5370TP3     H216123   5.125   3.710   2.471 -0.5276  0.7522 -0.0194
 5371TP3      O16124   3.801   2.747   3.084  0.0888 -0.2579  0.0068
 5371TP3     H116125   3.796   2.755   2.989 -0.4733  0.1766  0.0707
 5371TP3     H216126   3.714   2.720   3.111  0.3145 -0.6288  0.3789
 5372TP3      O16127   3.871   2.231   1.691  0.4253  0.5240 -0.3384
 5372TP3     H116128   3.864   2.228   1.787  0.2137  1.9589 -0.2814
 5372TP3     H216129   3.788   2.197   1.660 -1.8337  4.8815  0.1404
 5373TP3      O16130   5.929   3.159   1.999  0.0129 -0.1461 -0.2205
 5373TP3     H116131   5.974   3.185   1.918 -1.4756 -1.4938 -1.5722
 5373TP3     H216132   5.935   3.063   1.999  0.2899 -0.1449  1.4730
 5374TP3      O16133   3.606   1.584   1.720 -0.0986  0.3392 -0.7902
 5374TP3     H116134   3.554   1.581   1.640 -0.6527  1.6006 -0.5026
 5374TP3     H216135   3.565   1.653   1.772  0.9608  0.3228  0.0939
 5375TP3      O16136   4.726   1.890   2.635  0.5235  0.5588 -0.4412
 5375TP3     H116137   4.700   1.982   2.634 -3.9247 -0.4088  0.9993
 5375TP3     H216138   4.740   1.870   2.728 -1.1860 -0.6704 -0.3889
 5376TP3      O16139   5.205   2.558   2.887  0.5602 -0.5718 -0.3359
 5376TP3     H116140   5.235   2.496   2.953 -2.0758  0.2482  1.8500
 5376TP3     H216141   5.277   2.620   2.878  1.0174 -0.6836  1.9007
 5377TP3      O16142   4.693   3.871   2.403  0.7097  0.0921  0.2331
 5377TP3     H116143   4.656   3.910   2.483  0.5064  1.4149 -0.4708
 5377TP3     H216144   4.788   3.873   2.418  0.7380  1.3687  0.0223
 5378TP3      O16145   5.364   2.007   2.890  0.5828 -0.6315  0.1798
 5378TP3     H116146   5.352   1.925   2.842 -1.6530 -0.4179  0.2496
 5378TP3     H216147   5.362   2.075   2.823  1.2387 -0.5469  0.2394
 5379TP3      O16148   4.828   4.528   2.020 -0.3367  0.4741  0.6446
 5379TP3     H116149   4.798   4.493   1.937  0.6992  0.9441  0.0583
 5379TP3     H216150   4.754   4.580   2.053 -1.2806 -0.8972  0.7460
 5380TP3      O16151   4.442   2.848   0.893  0.3829  0.2804 -0.0213
 5380TP3     H116152   4.515   2.794   0.861  0.7345  1.8930 -2.1835
 5380TP3     H216153   4.480   2.900   0.964  1.1402  0.5539 -0.6161
 5381TP3      O16154   4.308   2.956   4.077 -0.3972 -0.0770 -0.4448
 5381TP3     H116155   4.243   3.008   4.124  0.4404  0.2277  0.4021
 5381TP3     H216156   4.351   3.019   4.019 -0.2033 -0.0824 -0.3055
 5382TP3      O16157   4.102   2.556   3.671  0.3728 -0.1457 -0.1692
 5382TP3     H116158   4.109   2.555   3.766 -2.3882  1.5960  0.1420
 5382TP3     H216159   4.012   2.531   3.653  0.4681  0.8316 -2.2656
 5383TP3      O16160   4.494   1.209   3.463  0.0231 -0.1689  0.4045
 5383TP3     H116161   4.567   1.248   3.512  0.8031  0.4155 -1.1448
 5383TP3     H216162   4.438   1.283   3.441  0.8191 -0.0481 -1.4026
 5384TP3      O16163   4.639   1.828   2.181 -0.3099 -0.2350  0.8203
 5384TP3     H116164   4.572   1.812   2.115 -0.3469 -0.3266  0.8798
 5384TP3     H216165   4.602   1.792   2.262  0.1323 -0.9891  0.6992
 5385TP3      O16166   4.983   3.645   3.226 -0.3948 -0.0034 -0.5154
 5385TP3     H116167   5.023   3.594   3.156  1.2558  1.9497 -1.1045
 5385TP3     H216168   4.999   3.594   3.305 -0.6087 -1.3354 -1.2974
 5386TP3      O16169   4.518   2.154   2.345 -0.0611  0.5132 -0.6255
 5386TP3     H116170   4.449   2.127   2.285  0.4594 -1.3874 -0.4151
 5386TP3     H216171   4.580   2.203   2.290 -0.5145  0.3947 -1.2526
 5387TP3      O16172   5.240   2.267   1.250 -0.5825 -0.1321 -0.1195
 5387TP3     H116173   5.200   2.198   1.303  0.2498 -0.2295  0.3932
 5387TP3     H216174   5.332   2.244   1.245  0.0554  1.7600  1.4289
 5388TP3      O16175   4.408   3.708   2.837  0.3376  0.3869  0.4750
 5388TP3     H116176   4.349   3.767   2.789  0.8381  0.2247 -0.3489
 5388TP3     H216177   4.464   3.669   2.770 -0.0060 -1.0687  0.9979
 5389TP3      O16178   5.482   3.372   2.578  0.3089  0.0112 -0.0368
 5389TP3     H116179   5.515   3.347   2.664 -1.1594  2.3988  1.3239
 5389TP3     H216180   5.419   3.303   2.556  0.5628 -0.5239  0.8561
 5390TP3      O16181   5.314   3.004   2.292 -0.3626 -0.2611 -0.1933
 5390TP3     H116182   5.365   3.050   2.225  0.4865 -0.9774 -0.0686
 5390TP3     H216183   5.251   3.068   2.324  1.7965  1.3221  1.1115
 5391TP3      O16184   4.954   1.582   2.869  0.0389 -0.1805  0.5671
 5391TP3     H116185   5.022   1.577   2.802 -1.3979  0.9826 -1.0639
 5391TP3     H216186   4.906   1.499   2.862 -1.3961  0.7375 -1.3783
 5392TP3      O16187   0.006   3.009   3.278  0.3350  0.2197 -0.4658
 5392TP3     H116188   0.051   3.087   3.245  0.0646  1.1401  1.2252
 5392TP3     H216189   0.076   2.948   3.300  0.7767  1.3156  1.3458
 5393TP3      O16190   4.011   3.425   3.014  0.2109  0.0265  0.0104
 5393TP3     H116191   3.995   3.343   3.062  0.1241  0.5524  0.9025
 5393TP3     H216192   4.100   3.450   3.039  0.1935  0.2676 -0.1699
 5394TP3      O16193   5.622   3.583   3.161 -0.2975  0.1134  0.3331
 5394TP3     H116194   5.562   3.626   3.222 -2.5411 -1.5570 -0.5360
 5394TP3     H216195   5.672   3.522   3.215 -0.6413  0.2681  0.8331
 5395TP3      O16196   4.872   2.964   2.616 -0.1885  0.0598 -0.0761
 5395TP3     H116197   4.913   2.907   2.680 -1.2561 -0.8524 -0.1799
 5395TP3     H216198   4.873   3.051   2.656  0.7112 -0.1739  0.4276
 5396TP3      O16199   5.811   3.707   3.409 -0.1231  0.5567 -0.0747
 5396TP3     H116200   5.753   3.780   3.428  1.0583  1.6039 -0.3088
 5396TP3     H216201   5.888   3.722   3.464  0.2477 -0.3721 -0.3043
 5397TP3      O16202   5.240   1.529   3.421  0.4308 -0.5833  0.1061
 5397TP3     H116203   5.311   1.591   3.402 -0.8463  0.8866 -0.1232
 5397TP3     H216204   5.180   1.578   3.478 -1.4420 -0.9943 -1.3950
 5398TP3      O16205   4.412   3.692   3.469 -0.2773 -0.3443 -0.0172
 5398TP3     H116206   4.460   3.748   3.408 -1.5166  1.3760  0.4989
 5398TP3     H216207   4.424   3.603   3.435  2.5549  0.0634 -0.3316
 5399TP3      O16208   4.645   2.990   1.989 -0.0943  0.0341 -0.0433
 5399TP3     H116209   4.585   2.915   1.992  0.1658 -0.2387 -1.1495
 5399TP3     H216210   4.730   2.952   1.967  1.1373  0.0733  3.8693
 5400TP3      O16211   4.517   2.707   2.881  0.0363  0.2481 -0.5253
 5400TP3     H116212   4.442   2.664   2.840 -0.7837  1.7967 -0.7275
 5400TP3     H216213   4.568   2.741   2.807  0.1136  0.5170 -0.3496
 5401TP3      O16214   5.384   1.865   4.271 -0.3460  0.4977  0.5778
 5401TP3     H116215   5.409   1.904   4.355 -1.7029  2.6685  0.0589
 5401TP3     H216216   5.289   1.875   4.266 -0.2825  0.6197 -1.2862
 5402TP3      O16217   3.270   3.777   2.612 -0.0692 -0.0199 -0.0968
 5402TP3     H116218   3.251   3.723   2.688 -0.5517  0.0547 -0.1618
 5402TP3     H216219   3.198   3.841   2.609 -1.2115 -1.2984 -1.8026
 5403TP3      O16220   4.904   3.188   2.238  0.3111  0.2916 -0.0610
 5403TP3     H116221   4.840   3.120   2.260  0.2668  0.6145  0.8189
 5403TP3     H216222   4.952   3.152   2.164  1.4489 -1.4591  1.4644
 5404TP3      O16223   4.545   2.421   3.856 -0.6854 -0.3358 -0.3133
 5404TP3     H116224   4.481   2.358   3.890 -0.2812 -2.0314 -2.4363
 5404TP3     H216225   4.492   2.492   3.819 -1.2172 -0.2598  0.5752
 5405TP3      O16226   5.298   2.922   2.768 -0.2486  0.6861 -0.2057
 5405TP3     H116227   5.355   2.852   2.798 -0.6743  1.1365  1.7999
 5405TP3     H216228   5.225   2.878   2.725 -0.6414 -0.1429  1.2544
 5406TP3      O16229   4.840   3.483   2.721 -0.3420 -0.1730 -0.2137
 5406TP3     H116230   4.919   3.533   2.743  0.7587 -1.8729 -0.1526
 5406TP3     H216231   4.797   3.469   2.806  0.8217 -1.6776  0.1708
 5407TP3      O16232   5.423   3.088   2.576 -0.6226  0.6359  0.2301
 5407TP3     H116233   5.418   3.027   2.649 -0.9759 -1.1704 -1.2104
 5407TP3     H216234   5.385   3.040   2.502  0.1309  2.1970 -1.2547
 5408TP3      O16235   4.623   3.783   3.022  0.6913 -0.2750 -0.0102
 5408TP3     H116236   4.542   3.801   2.975 -1.4591 -1.3431  3.0096
 5408TP3     H216237   4.653   3.699   2.989  2.4263  1.4111 -3.2904
 5409TP3      O16238   4.359   3.449   2.922 -0.0577  0.2385  0.0944
 5409TP3     H116239   4.383   3.539   2.901  0.1644  0.4036  1.0303
 5409TP3     H216240   4.302   3.422   2.850  0.3567  0.9169 -0.5083
 5410TP3      O16241   5.682   3.198   3.357  0.1246 -0.4543 -0.1032
 5410TP3     H116242   5.710   3.266   3.295  1.4938 -0.8559  0.0547
 5410TP3     H216243   5.762   3.172   3.402 -0.9256  0.3759  2.4269
 5411TP3      O16244   4.627   1.635   3.749 -0.0936 -0.2855 -0.6986
 5411TP3     H116245   4.646   1.575   3.822  1.3430  0.2200 -0.6283
 5411TP3     H216246   4.569   1.701   3.787  0.0522 -0.4320 -0.2143
 5412TP3      O16247   4.451   1.143   4.026 -0.1752  0.1899 -0.0655
 5412TP3     H116248   4.514   1.074   4.047 -0.1815  0.4275  0.7625
 5412TP3     H216249   4.454   1.150   3.931 -0.6740 -1.4467 -0.2425
 5413TP3      O16250   3.832   2.849   2.376  0.2892 -0.2374 -0.2235
 5413TP3     H116251   3.774   2.781   2.342  3.2238 -2.5577 -1.1253
 5413TP3     H216252   3.854   2.820   2.465  2.0621 -0.9658 -0.8389
 5414TP3      O16253   5.813   3.239   2.628 -0.2508 -0.1557 -0.1926
 5414TP3     H116254   5.803   3.144   2.619 -0.8545 -0.7898  4.5449
 5414TP3     H216255   5.908   3.253   2.623 -0.2521 -0.4968 -3.2490
 5415TP3      O16256   5.378   1.747   1.670 -0.0608  0.2672  0.1151
 5415TP3     H116257   5.401   1.748   1.762 -1.2953 -2.3228  0.5469
 5415TP3     H216258   5.397   1.657   1.641 -1.5178  0.4509 -1.6301
 5416TP3      O16259   3.901   1.425   3.408 -0.4035 -0.4740  0.2537
 5416TP3     H116260   3.806   1.410   3.402 -0.4837  0.4449 -1.2201
 5416TP3     H216261   3.938   1.338   3.419 -1.3955 -0.8785  0.5056
 5417TP3      O16262   3.652   3.120   3.426  0.4432  0.0976 -0.0255
 5417TP3     H116263   3.672   3.164   3.344  0.5828  2.6386  1.2848
 5417TP3     H216264   3.722   3.146   3.485 -0.6218 -0.1983  1.4284
 5418TP3      O16265   4.648   1.509   2.695  0.1432 -0.7370 -0.0922
 5418TP3     H116266   4.743   1.502   2.682  0.1493  1.1265 -1.5429
 5418TP3     H216267   4.616   1.419   2.687  1.5444 -1.1377 -1.9604
 5419TP3      O16268   5.855   2.842   3.436  0.6420 -0.0190  0.2696
 5419TP3     H116269   5.893   2.917   3.391 -2.0810  0.0641 -2.2232
 5419TP3     H216270   5.796   2.880   3.501  2.0290 -0.1119  1.6308
 5420TP3      O16271   4.421   1.785   2.022 -0.6742  0.4563 -0.1254
 5420TP3     H116272   4.398   1.712   1.965  1.0664  0.4227 -0.8779
 5420TP3     H216273   4.401   1.863   1.969 -2.4014  0.5453  0.6235
 5421TP3      O16274   5.385   1.702   1.968  0.4259 -0.5631 -0.5374
 5421TP3     H116275   5.395   1.608   1.954  0.6552 -0.5537 -0.4435
 5421TP3     H216276   5.466   1.728   2.012 -0.9287 -0.9308  2.4904
 5422TP3      O16277   3.551   3.114   2.501 -0.3618  0.4085  0.2802
 5422TP3     H116278   3.566   3.068   2.418 -0.1160 -0.2898  0.6982
 5422TP3     H216279   3.612   3.187   2.499 -2.0084  1.8454 -1.1971
 5423TP3      O16280   5.249   3.689   3.429  0.2647 -0.0830 -0.5140
 5423TP3     H116281   5.222   3.643   3.509 -1.8407  0.1041 -1.0808
 5423TP3     H216282   5.216   3.636   3.358 -2.1249  2.1182 -1.1977
 5424TP3      O16283   4.910   3.614   3.565  0.4717 -0.3229 -0.4106
 5424TP3     H116284   4.858   3.534   3.566  1.1570 -0.8459 -2.2389
 5424TP3     H216285   4.862   3.673   3.507  1.0831 -0.2484 -0.8620
 5425TP3      O16286   4.155   3.284   3.880  0.3760 -0.2127 -0.1907
 5425TP3     H116287   4.170   3.318   3.968  1.6526  0.0013 -0.4764
 5425TP3     H216288   4.089   3.215   3.892 -1.7862  1.8383  0.4938
 5426TP3      O16289   5.489   2.368   1.501 -0.5075 -0.2347 -0.1135
 5426TP3     H116290   5.445   2.451   1.519 -0.2260 -0.4050  1.5181
 5426TP3     H216291   5.546   2.354   1.577  2.2433 -0.1449 -2.0412
 5427TP3      O16292   5.596   3.173   2.349  0.3515  0.8914 -0.0005
 5427TP3     H116293   5.684   3.195   2.380 -0.5078  0.4032  3.1812
 5427TP3     H216294   5.549   3.145   2.428 -1.4177 -3.1511 -2.1388
 5428TP3      O16295   5.450   2.595   1.962  0.2683  0.2146 -0.0540
 5428TP3     H116296   5.540   2.572   1.983  0.7223  0.9478 -1.0756
 5428TP3     H216297   5.402   2.513   1.966  1.1306 -0.3077 -0.2036
 5429TP3      O16298   4.224   1.794   2.231 -0.0848 -0.4857  0.2099
 5429TP3     H116299   4.313   1.809   2.197  0.6733 -2.5723  1.1371
 5429TP3     H216300   4.168   1.801   2.154  0.8089  1.2076 -0.3393
 5430TP3      O16301   3.945   2.671   3.314 -0.5366 -0.1380 -0.2539
 5430TP3     H116302   3.896   2.670   3.231 -1.5157  1.3435  0.2715
 5430TP3     H216303   3.890   2.723   3.373  1.4747  1.2235  0.5031
 5431TP3      O16304   4.205   1.405   2.932 -0.0322  0.1035 -0.1979
 5431TP3     H116305   4.287   1.450   2.950  1.1832 -1.5186 -1.3461
 5431TP3     H216306   4.165   1.392   3.018  1.3213  0.2044  0.4619
 5432TP3      O16307   5.078   1.938   3.023 -0.0031 -0.2545  0.0096
 5432TP3     H116308   4.986   1.931   3.002  0.2854 -0.7749 -1.1306
 5432TP3     H216309   5.101   1.852   3.059 -0.4631  0.5733  2.5155
 5433TP3      O16310   3.316   3.228   2.579  0.3081  0.0739  0.0570
 5433TP3     H116311   3.404   3.194   2.561  0.9225  1.5567  0.1534
 5433TP3     H216312   3.329   3.295   2.646 -0.7116  1.1963 -0.8171
 5434TP3      O16313   3.524   3.764   2.484 -0.5337 -0.2022 -0.7582
 5434TP3     H116314   3.598   3.822   2.506  0.1825 -1.5852  0.7247
 5434TP3     H216315   3.458   3.784   2.551 -0.6043 -0.5157 -0.7331
 5435TP3      O16316   4.509   2.720   1.987  0.3932  0.1118  0.2114
 5435TP3     H116317   4.579   2.699   1.925 -0.6790 -0.8332 -0.7267
 5435TP3     H216318   4.529   2.668   2.064  1.4111  0.8265  0.4395
 5436TP3      O16319   4.963   2.278   2.831  0.2735  0.0286 -0.0587
 5436TP3     H116320   4.940   2.187   2.815  2.2298 -0.4057 -0.7267
 5436TP3     H216321   4.917   2.302   2.911 -0.6768 -1.3654 -0.1598
 5437TP3      O16322   3.183   2.671   2.837 -0.0861 -0.1435  0.4126
 5437TP3     H116323   3.229   2.675   2.754 -1.3925 -0.1239 -0.3395
 5437TP3     H216324   3.242   2.713   2.900  0.6634  0.3757 -0.6130
 5438TP3      O16325   4.401   2.928   3.608  0.0035 -0.0393  0.6142
 5438TP3     H116326   4.313   2.960   3.629  0.3040  1.8065 -0.7204
 5438TP3     H216327   4.401   2.918   3.513  0.8709 -1.2807  0.7137
 5439TP3      O16328   5.232   2.560   3.254 -0.1476 -0.1239  0.3297
 5439TP3     H116329   5.171   2.521   3.316  2.3826 -1.3800  2.1915
 5439TP3     H216330   5.230   2.501   3.179  0.4654 -1.4797  1.3442
 5440TP3      O16331   5.094   2.431   2.100  0.2758  0.1008 -0.7784
 5440TP3     H116332   5.176   2.422   2.053  1.8832  0.7700  1.7018
 5440TP3     H216333   5.101   2.515   2.145 -1.5873 -0.0130 -0.1929
 5441TP3      O16334   4.818   3.225   3.126  0.0026  0.6936  0.0222
 5441TP3     H116335   4.781   3.167   3.060 -0.6384  0.2245  0.7772
 5441TP3     H216336   4.816   3.174   3.207  0.9192  1.1999  0.3863
 5442TP3      O16337   3.695   3.339   3.977 -0.5964 -0.1212 -0.3576
 5442TP3     H116338   3.657   3.261   3.937  0.9827  0.1703 -2.5687
 5442TP3     H216339   3.747   3.304   4.050 -0.4397 -1.0954 -0.9109
 5443TP3      O16340   4.072   1.205   3.267 -0.3440 -0.6486  0.0975
 5443TP3     H116341   4.140   1.139   3.279 -0.8032 -1.2700 -0.6441
 5443TP3     H216342   4.105   1.282   3.312 -0.3781 -1.7585  2.1571
 5444TP3      O16343   4.780   3.994   3.218  0.1167  0.0776 -0.7059
 5444TP3     H116344   4.745   4.083   3.216 -1.6863 -0.5578  0.1537
 5444TP3     H216345   4.735   3.949   3.147 -0.6399 -0.6688  0.2026
 5445TP3      O16346   4.240   2.693   2.010  0.2163  0.4977 -0.3819
 5445TP3     H116347   4.332   2.712   1.995  0.2449  0.9011  0.2579
 5445TP3     H216348   4.239   2.613   2.062  0.2543  0.9484  0.3420
 5446TP3      O16349   3.562   2.209   3.389 -0.4948 -0.6755 -0.0680
 5446TP3     H116350   3.601   2.226   3.302  0.5190  1.6778  0.7395
 5446TP3     H216351   3.545   2.115   3.390  2.1152 -1.2825 -1.7803
 5447TP3      O16352   5.128   3.022   3.078  0.5556  0.0447  0.2678
 5447TP3     H116353   5.213   2.983   3.100  1.2922  0.6746 -1.2860
 5447TP3     H216354   5.150   3.105   3.037 -0.7549 -0.2657 -1.1633
 5448TP3      O16355   5.053   2.478   2.652  0.4315 -0.1818 -0.0637
 5448TP3     H116356   5.004   2.397   2.663 -0.5075  0.3928  0.0480
 5448TP3     H216357   5.096   2.491   2.737 -0.8755  0.3757  0.5303
 5449TP3      O16358   4.863   3.217   2.716 -0.0093  0.1265  0.6985
 5449TP3     H116359   4.826   3.301   2.688 -1.2672 -0.3668  0.8325
 5449TP3     H216360   4.957   3.228   2.705 -0.3121  0.4671 -2.3383
 5450TP3      O16361   5.126   3.168   2.688 -0.5060  0.1271 -0.1760
 5450TP3     H116362   5.125   3.160   2.592 -1.4610  0.8854 -0.2410
 5450TP3     H216363   5.184   3.097   2.717 -0.8297 -0.6049 -1.2682
 5451TP3      O16364   3.488   2.860   3.764 -0.4969  0.8076 -0.4287
 5451TP3     H116365   3.435   2.804   3.706  0.7319 -1.1524  0.2285
 5451TP3     H216366   3.432   2.876   3.839 -0.2064 -1.4259  0.3594
 5452TP3      O16367   4.513   4.429   3.364 -0.1860  0.5177  0.2666
 5452TP3     H116368   4.601   4.465   3.369  0.3787 -0.6409 -0.8024
 5452TP3     H216369   4.456   4.506   3.360  0.7283  1.2867  1.3115
 5453TP3      O16370   4.961   2.166   1.833  0.1270  0.0732 -0.3432
 5453TP3     H116371   4.944   2.077   1.802 -1.0480  0.0348  0.3380
 5453TP3     H216372   4.970   2.157   1.928  4.0770  0.1185 -0.5534
 5454TP3      O16373   4.833   3.671   2.056  0.2356  0.0869  0.3618
 5454TP3     H116374   4.883   3.702   1.980  2.0509  0.1820  1.5377
 5454TP3     H216375   4.824   3.577   2.041  1.7892 -0.1366  0.6439
 5455TP3      O16376   4.176   3.925   3.843  0.1932 -0.0884 -0.0216
 5455TP3     H116377   4.090   3.900   3.808  0.9076 -0.7000 -1.4457
 5455TP3     H216378   4.163   3.930   3.937 -0.4941 -4.1425  0.2584
 5456TP3      O16379   4.808   2.382   1.931 -0.7610  0.1345 -0.2802
 5456TP3     H116380   4.838   2.306   1.881 -1.6271  0.4683 -1.3600
 5456TP3     H216381   4.879   2.401   1.991 -0.2424 -1.1109 -0.4651
 5457TP3      O16382   4.641   2.583   3.138 -0.0275  0.3600  0.1916
 5457TP3     H116383   4.604   2.606   3.052 -0.5765 -1.6756 -0.1656
 5457TP3     H216384   4.564   2.568   3.193  0.3261  0.7636  0.8035
 5458TP3      O16385   4.726   3.006   2.354  0.4000  0.1352 -0.1060
 5458TP3     H116386   4.712   3.050   2.438 -1.1298 -0.1820 -0.1766
 5458TP3     H216387   4.683   2.921   2.363 -0.5329  0.4234 -1.4851
 5459TP3      O16388   4.608   3.545   3.671  0.0810  0.8347  0.0696
 5459TP3     H116389   4.554   3.507   3.602 -1.8941  1.3906  1.2310
 5459TP3     H216390   4.588   3.639   3.667  3.3166  1.6142 -1.4173
 5460TP3      O16391   5.924   2.067   2.947 -0.1454 -0.5369 -0.1691
 5460TP3     H116392   5.929   1.972   2.947  0.6111 -0.5629  2.0811
 5460TP3     H216393   5.874   2.088   3.026  0.4902  0.9580 -0.1338
 5461TP3      O16394   3.374   2.621   1.842  0.0289 -0.4724 -0.1981
 5461TP3     H116395   3.418   2.587   1.920  0.6592 -0.4851 -0.5491
 5461TP3     H216396   3.433   2.597   1.770 -0.5049 -0.3896 -0.6664
 5462TP3      O16397   5.321   3.596   2.670  0.1701 -0.0457  0.4197
 5462TP3     H116398   5.353   3.511   2.643 -1.8594 -1.1333  1.2078
 5462TP3     H216399   5.355   3.609   2.759  1.1020  0.3349  0.0157
 5463TP3      O16400   3.308   3.274   1.904 -0.1024 -0.3221 -0.3547
 5463TP3     H116401   3.340   3.204   1.846  1.9068 -0.5268  0.9308
 5463TP3     H216402   3.306   3.234   1.991  1.0863  1.1767  0.4104
 5464TP3      O16403   4.267   2.278   2.417  0.2251  0.1223  0.6768
 5464TP3     H116404   4.209   2.206   2.390 -0.1550  0.5996  0.1870
 5464TP3     H216405   4.355   2.242   2.409  0.0217 -0.4588  0.9569
 5465TP3      O16406   5.160   3.697   1.981 -0.1053  0.2348  0.6233
 5465TP3     H116407   5.208   3.726   1.904  0.1127 -1.4739  0.0826
 5465TP3     H216408   5.166   3.771   2.042 -0.2708  1.6171 -0.9562
 5466TP3      O16409   3.938   2.995   3.179 -0.1256  0.2530 -0.1977
 5466TP3     H116410   4.022   2.967   3.144 -1.1329 -0.4127 -2.2801
 5466TP3     H216411   3.873   2.947   3.126 -1.8419  2.3472 -0.1297
 5467TP3      O16412   0.185   3.452   1.984 -0.7378 -0.2463  0.0351
 5467TP3     H116413   0.124   3.486   2.049  0.0162  1.3814 -0.0794
 5467TP3     H216414   0.142   3.468   1.900 -0.2544  0.7195 -0.0350
 5468TP3      O16415   4.249   2.817   2.826  0.2466 -0.2876 -0.2960
 5468TP3     H116416   4.305   2.831   2.749 -0.8620  0.3949 -1.0097
 5468TP3     H216417   4.229   2.723   2.824 -1.2077  0.0074 -1.9029
 5469TP3      O16418   5.323   2.794   2.449 -0.1056 -0.9632 -0.0492
 5469TP3     H116419   5.405   2.748   2.430 -0.5816 -1.3030 -1.3669
 5469TP3     H216420   5.326   2.871   2.392 -0.9460 -1.2523 -0.4847
 5470TP3      O16421   4.247   2.976   3.071  0.1376 -0.8448  0.0371
 5470TP3     H116422   4.227   2.942   2.984 -1.9240  0.9440 -0.2720
 5470TP3     H216423   4.337   3.008   3.064 -0.4723  0.6896 -2.0004
 5471TP3      O16424   5.927   2.619   4.002 -0.2435  0.0215 -0.6415
 5471TP3     H116425   5.967   2.544   3.958 -1.8028 -0.7949 -0.7198
 5471TP3     H216426   5.912   2.682   3.933  2.8357  1.2960 -0.3076
 5472TP3      O16427   3.788   3.135   1.687  0.0309  0.3011  0.2186
 5472TP3     H116428   3.762   3.081   1.762 -1.7532 -0.5644 -0.9611
 5472TP3     H216429   3.706   3.155   1.642  1.0837  0.5081 -1.7105
 5473TP3      O16430   3.583   3.342   4.468  0.5702  0.0529  0.4930
 5473TP3     H116431   3.600   3.423   4.517 -1.0484  0.2315  0.8209
 5473TP3     H216432   3.547   3.372   4.385  0.5509 -0.3206  0.3661
 5474TP3      O16433   4.421   1.963   2.941  0.3097  0.4798 -0.1896
 5474TP3     H116434   4.333   1.990   2.916  0.2281  0.8801  0.5004
 5474TP3     H216435   4.420   1.868   2.935  0.0576  0.5203 -0.9034
 5475TP3      O16436   4.163   2.165   1.272 -0.3435  0.0222  0.7621
 5475TP3     H116437   4.104   2.156   1.347 -0.2226  1.6679  1.0901
 5475TP3     H216438   4.117   2.122   1.200 -1.6538  0.7045  1.1633
 5476TP3      O16439   5.507   3.176   2.937 -0.9924  0.1021  0.2423
 5476TP3     H116440   5.521   3.107   2.872  1.3774 -1.1257  1.8927
 5476TP3     H216441   5.550   3.253   2.900  0.9441 -0.7659  0.5446
 5477TP3      O16442   3.740   2.240   1.954  0.0884  0.8865 -0.1020
 5477TP3     H116443   3.761   2.164   2.007 -1.0966 -0.4987 -1.5038
 5477TP3     H216444   3.692   2.205   1.879  1.4731  2.7471 -1.9895
 5478TP3      O16445   4.285   1.606   1.192 -0.0301 -0.0845  0.0279
 5478TP3     H116446   4.263   1.654   1.112 -0.6531 -1.4736 -0.6695
 5478TP3     H216447   4.364   1.650   1.225  0.2138  0.5542 -1.3142
 5479TP3      O16448   4.355   2.157   3.648 -0.4941  0.4694 -0.5169
 5479TP3     H116449   4.301   2.198   3.716 -1.6181 -1.9993  0.1832
 5479TP3     H216450   4.441   2.147   3.688 -0.8045  0.1954  0.1031
 5480TP3      O16451   4.907   3.863   2.798 -0.2063 -0.9156 -0.3783
 5480TP3     H116452   4.943   3.922   2.864  0.2927 -0.1775 -1.2866
 5480TP3     H216453   4.970   3.791   2.793  0.0125 -0.7215 -0.4044
 5481TP3      O16454   4.387   2.684   3.768 -0.3607  0.5633  0.2177
 5481TP3     H116455   4.375   2.758   3.709 -2.2031  0.2952  0.1846
 5481TP3     H216456   4.298   2.662   3.797  0.2902 -0.6680  1.4194
 5482TP3      O16457   5.041   3.404   3.067 -0.2913 -0.2029  0.3847
 5482TP3     H116458   5.106   3.346   3.028  0.2781  0.4410  0.3618
 5482TP3     H216459   4.965   3.347   3.084 -0.5807 -0.5162 -1.6769
 5483TP3      O16460   4.047   3.717   3.593  0.2990  0.0781 -0.1011
 5483TP3     H116461   4.115   3.745   3.532  0.5563  0.4837  0.3614
 5483TP3     H216462   3.972   3.773   3.573  0.2625 -0.0325 -0.2797
 5484TP3      O16463   5.428   2.715   2.852 -0.2980  0.2916  0.5043
 5484TP3     H116464   5.466   2.667   2.926  0.8928  0.1779 -0.1685
 5484TP3     H216465   5.503   2.747   2.803 -1.0837  0.8359 -0.3674
 5485TP3      O16466   4.797   1.307   1.970 -0.4690 -0.1572 -0.1273
 5485TP3     H116467   4.892   1.323   1.974 -0.4509  0.2106 -1.5579
 5485TP3     H216468   4.758   1.388   2.001 -0.3209 -0.1030 -0.0780
 5486TP3      O16469   4.460   3.147   3.005  0.3277 -0.2800 -0.3702
 5486TP3     H116470   4.455   3.214   3.073  2.4201 -0.1403 -0.3052
 5486TP3     H216471   4.504   3.191   2.932  0.9139 -1.3254 -0.6626
 5487TP3      O16472   5.048   2.523   3.670  0.3901 -0.2906  0.5825
 5487TP3     H116473   4.972   2.516   3.612 -0.2382 -1.8748  1.5485
 5487TP3     H216474   5.114   2.568   3.617 -1.5016  2.0939  0.0434
 5488TP3      O16475   5.286   2.946   3.458  0.2564  0.1192  0.3368
 5488TP3     H116476   5.238   3.025   3.483  2.0340  1.6062 -0.6946
 5488TP3     H216477   5.221   2.891   3.414 -1.5407 -0.0368  2.9465
 5489TP3      O16478   5.067   2.781   2.700  0.3687  0.0626 -0.0951
 5489TP3     H116479   5.054   2.771   2.794  0.7219  0.1247 -0.0380
 5489TP3     H216480   5.078   2.692   2.668  1.2339  0.0955  0.0742
 5490TP3      O16481   3.317   3.116   2.137  0.3625  0.5576  0.0035
 5490TP3     H116482   3.260   3.155   2.203  1.2280 -0.5640  1.4864
 5490TP3     H216483   3.395   3.089   2.186  0.0718 -2.4423 -0.9849
 5491TP3      O16484   4.875   2.006   3.333  0.0729  0.2375 -0.1868
 5491TP3     H116485   4.833   2.091   3.345 -2.5283 -0.7383 -1.6151
 5491TP3     H216486   4.813   1.944   3.371 -0.6072 -1.4195 -3.6539
 5492TP3      O16487   4.310   2.274   2.698 -0.2215  0.3460  0.3958
 5492TP3     H116488   4.293   2.286   2.604  2.1523  1.3948  0.0131
 5492TP3     H216489   4.237   2.222   2.730 -1.1549  0.0663 -2.0192
 5493TP3      O16490   0.160   3.746   2.807 -0.1510 -0.3793 -0.6556
 5493TP3     H116491   0.100   3.796   2.862 -0.0795 -0.9956  0.0021
 5493TP3     H216492   0.181   3.804   2.734 -0.2564  0.4477 -0.0314
 5494TP3      O16493   4.048   2.416   3.304  0.2481  0.3719 -0.1815
 5494TP3     H116494   4.054   2.382   3.215  1.1146  0.2102 -0.0739
 5494TP3     H216495   4.015   2.505   3.293  2.2918  1.1076 -0.8654
 5495TP3      O16496   3.795   2.694   2.097 -0.1771 -0.2812  0.1240
 5495TP3     H116497   3.736   2.769   2.101  0.6336  0.4253 -0.7388
 5495TP3     H216498   3.793   2.667   2.005 -3.4055 -3.7903  0.9799
 5496TP3      O16499   4.575   2.058   3.308 -0.1199  0.1767 -0.3537
 5496TP3     H116500   4.570   2.117   3.233  0.6257  0.8459  0.1045
 5496TP3     H216501   4.496   2.076   3.359 -0.1915  0.3418 -0.5233
 5497TP3      O16502   5.845   2.112   3.451 -0.1488 -0.5542 -0.0028
 5497TP3     H116503   5.827   2.178   3.518 -0.1174 -0.7360  0.1868
 5497TP3     H216504   5.803   2.033   3.485  1.5483 -1.1701  0.7668
 5498TP3      O16505   4.578   2.349   2.803  0.6266 -0.6732 -0.3554
 5498TP3     H116506   4.585   2.298   2.884  3.1382 -0.3996 -0.3281
 5498TP3     H216507   4.499   2.315   2.760 -1.7645  0.2733  2.8702
 5499TP3      O16508   5.731   4.017   2.964  0.2908  0.0967 -0.2771
 5499TP3     H116509   5.731   4.092   2.906 -0.5987 -0.0847 -0.5184
 5499TP3     H216510   5.654   3.966   2.939 -1.0262  0.7909  2.0553
 5500TP3      O16511   4.294   2.065   3.407 -0.1651  0.6329 -0.0747
 5500TP3     H116512   4.233   2.000   3.441 -1.1495  1.2103 -0.6971
 5500TP3     H216513   4.312   2.122   3.481 -0.0448  0.2135  0.2216
 5501TP3      O16514   4.169   3.880   2.723 -0.4150 -0.2353  0.2057
 5501TP3     H116515   4.097   3.924   2.678  1.5327  1.6889 -1.2588
 5501TP3     H216516   4.212   3.949   2.773  1.9435 -0.6308 -1.0722
 5502TP3      O16517   5.260   2.660   3.562  0.6800 -0.1477  0.1154
 5502TP3     H116518   5.313   2.623   3.491  0.1934 -0.2873 -0.1805
 5502TP3     H216519   5.316   2.726   3.601 -0.0501  2.0894 -2.3086
 5503TP3      O16520   4.592   2.152   3.045 -0.3055 -0.1654  0.2144
 5503TP3     H116521   4.561   2.069   3.009 -0.1685 -0.7329  1.3635
 5503TP3     H216522   4.513   2.196   3.077 -0.3826  0.1800 -0.4237
 5504TP3      O16523   4.264   3.015   1.867 -0.1355 -0.2415  0.0513
 5504TP3     H116524   4.344   3.053   1.831  0.1317  1.1301  1.9372
 5504TP3     H216525   4.289   2.983   1.954 -1.4422 -0.5860  0.3295
 5505TP3      O16526   4.190   3.372   3.382 -0.5825 -0.0558 -0.3058
 5505TP3     H116527   4.223   3.375   3.472 -0.3068 -0.4881 -0.3897
 5505TP3     H216528   4.262   3.407   3.330 -0.3042 -0.8618 -0.4745
 5506TP3      O16529   5.067   1.739   1.043  0.0776 -0.2919 -0.1994
 5506TP3     H116530   5.042   1.648   1.062  0.4835 -0.9067 -2.3635
 5506TP3     H216531   5.022   1.760   0.961  3.5797 -0.2082 -2.3166
 5507TP3      O16532   5.117   1.711   1.948 -0.1392 -0.1454 -0.1177
 5507TP3     H116533   5.083   1.681   2.032  1.0771 -0.4210  0.3046
 5507TP3     H216534   5.212   1.696   1.954  0.1280  1.0186 -1.0478
 5508TP3      O16535   5.440   2.280   3.397  0.3385  0.0079 -0.5007
 5508TP3     H116536   5.434   2.371   3.368 -0.3423 -0.0430 -0.5264
 5508TP3     H216537   5.350   2.252   3.409  0.5276 -0.7484 -0.7516
 5509TP3      O16538   3.804   3.508   3.273 -0.1489 -0.6545  0.2904
 5509TP3     H116539   3.800   3.548   3.186  3.3938  0.1169  0.3238
 5509TP3     H216540   3.861   3.432   3.262 -1.4213 -1.8613  1.5674
 5510TP3      O16541   4.930   3.981   1.984 -0.3268 -0.4178 -0.0194
 5510TP3     H116542   4.850   4.010   2.029 -0.0791  1.6796 -0.8065
 5510TP3     H216543   4.998   4.040   2.018  0.9987 -2.3929  0.9025
 5511TP3      O16544   4.136   2.038   5.078  0.2741  0.2822 -0.1258
 5511TP3     H116545   4.212   2.073   5.031  1.4215 -2.1947 -0.2906
 5511TP3     H216546   4.083   1.997   5.010  0.0093 -0.0695  0.2895
 5512TP3      O16547   4.619   2.255   5.712  0.1800  0.2915 -0.0640
 5512TP3     H116548   4.692   2.215   5.664  0.1331 -1.1727  1.0307
 5512TP3     H216549   4.542   2.237   5.658  0.2810 -0.4197  0.0156
 5513TP3      O16550   5.033   1.955   4.948  0.0816 -0.3194  0.0961
 5513TP3     H116551   5.057   2.032   4.999 -2.4994 -0.6461  2.0409
 5513TP3     H216552   4.994   1.990   4.868 -0.6553  0.4123  0.7570
 5514TP3      O16553   3.842   3.663   5.006 -0.5774  0.9665  0.2973
 5514TP3     H116554   3.781   3.736   5.000 -1.1311  0.4418 -0.8407
 5514TP3     H216555   3.836   3.620   4.921 -0.1651 -0.3189  0.8910
 5515TP3      O16556   5.287   3.002   4.997  0.3392  0.5054  0.1040
 5515TP3     H116557   5.236   3.082   5.009 -0.3368  0.2838 -1.0890
 5515TP3     H216558   5.290   2.961   5.083 -1.9814  0.2579  0.1224
 5516TP3      O16559   4.392   1.701   5.615 -0.1891  0.1819  0.1798
 5516TP3     H116560   4.405   1.749   5.533 -0.6143 -0.6142 -0.3713
 5516TP3     H216561   4.403   1.767   5.683 -1.9762  1.3492 -0.5827
 5517TP3      O16562   5.363   3.044   4.377 -0.2790 -0.5361 -0.0821
 5517TP3     H116563   5.313   3.017   4.454 -1.6814  0.8530 -0.4566
 5517TP3     H216564   5.432   3.101   4.412  0.0489 -1.1532  0.2862
 5518TP3      O16565   4.699   2.929   5.136  0.3538  0.1490 -0.4966
 5518TP3     H116566   4.680   2.980   5.215  0.6517 -0.6399  0.0984
 5518TP3     H216567   4.699   2.838   5.166  2.5321 -0.0673 -0.9556
 5519TP3      O16568   4.020   2.522   5.512  0.8015 -0.3554  0.0745
 5519TP3     H116569   3.987   2.601   5.556  0.0566  0.7871 -2.3491
 5519TP3     H216570   4.112   2.542   5.495  0.6308 -0.0202 -0.4777
 5520TP3      O16571   5.081   2.682   4.300  0.2968  0.5298  0.2614
 5520TP3     H116572   5.046   2.762   4.261  0.6355  0.4776 -0.1658
 5520TP3     H216573   5.143   2.649   4.234  0.1891 -0.0625  0.4476
 5521TP3      O16574   4.895   3.443   5.838 -0.3301  0.0931  0.1184
 5521TP3     H116575   4.802   3.421   5.829  0.4035 -4.3481  1.0692
 5521TP3     H216576   4.900   3.488   5.923 -1.3421 -2.8314  1.8863
 5522TP3      O16577   3.828   3.163   5.061  0.1527 -0.8241  0.1310
 5522TP3     H116578   3.856   3.155   5.152  1.8489 -2.3013 -0.4665
 5522TP3     H216579   3.765   3.092   5.049 -0.6603 -0.1576  0.3172
 5523TP3      O16580   4.759   3.595   5.227 -0.0165 -0.2907 -0.1696
 5523TP3     H116581   4.841   3.612   5.180 -0.0900  2.4237  0.4941
 5523TP3     H216582   4.691   3.607   5.160  0.0007  0.8337  0.0023
 5524TP3      O16583   3.270   2.495   5.189  0.5299 -0.1790  0.1880
 5524TP3     H116584   3.268   2.399   5.186  1.5642 -0.1885 -0.5981
 5524TP3     H216585   3.323   2.520   5.114 -0.6691  1.0720 -0.2649
 5525TP3      O16586   5.732   1.469   5.241  0.2612  0.2893  0.2038
 5525TP3     H116587   5.655   1.420   5.270  1.7261 -1.6403  1.1040
 5525TP3     H216588   5.795   1.401   5.215  2.7040  1.5890  2.2469
 5526TP3      O16589   3.892   4.176   3.870  0.5354 -0.1951  0.1026
 5526TP3     H116590   3.950   4.179   3.793 -1.4615 -1.0784 -1.5214
 5526TP3     H216591   3.878   4.083   3.885 -0.7133  0.0089  0.2422
 5527TP3      O16592   4.318   2.865   5.605 -0.6154 -0.4507 -0.0753
 5527TP3     H116593   4.307   2.957   5.582 -0.8340  0.1421  2.1391
 5527TP3     H216594   4.405   2.861   5.646 -0.3651 -1.3606 -0.6599
 5528TP3      O16595   2.803   3.652   3.214  0.1114  0.2763 -0.4634
 5528TP3     H116596   2.872   3.692   3.267  2.5290 -0.3753 -2.8770
 5528TP3     H216597   2.748   3.606   3.277  0.2909  2.9528  1.8459
 5529TP3      O16598   5.003   4.079   3.646 -0.0225  0.3696  0.7071
 5529TP3     H116599   5.061   4.062   3.572 -1.0260  0.0623 -0.0378
 5529TP3     H216600   4.933   4.133   3.609 -0.4196  0.4004  1.4847
 5530TP3      O16601   4.615   4.250   5.752 -0.1446 -0.1755 -0.0180
 5530TP3     H116602   4.559   4.212   5.820 -1.3743  0.2302 -0.7772
 5530TP3     H216603   4.631   4.339   5.782  0.3519 -0.3814  0.3429
 5531TP3      O16604   4.253   2.786   4.782 -0.3965  0.4553  0.7596
 5531TP3     H116605   4.347   2.802   4.782 -0.3807  0.4365 -0.2467
 5531TP3     H216606   4.218   2.848   4.846  0.1538  1.4787  0.0977
 5532TP3      O16607   4.655   1.616   4.477 -0.7827  0.2160  0.2625
 5532TP3     H116608   4.664   1.545   4.540 -0.5679 -2.8759 -2.8992
 5532TP3     H216609   4.685   1.694   4.523  2.4161 -2.3231  2.9895
 5533TP3      O16610   3.541   1.644   4.908  0.1008  0.2249  0.1724
 5533TP3     H116611   3.492   1.617   4.985 -2.2146  1.9259 -0.6022
 5533TP3     H216612   3.514   1.585   4.839 -2.2853  2.1261 -0.6572
 5534TP3      O16613   5.415   3.579   3.738 -0.6328  0.2737 -0.1306
 5534TP3     H116614   5.434   3.574   3.832  1.8968 -0.6825 -0.6020
 5534TP3     H216615   5.429   3.671   3.716  2.7216 -0.1411 -0.1879
 5535TP3      O16616   3.842   3.578   4.721 -0.8174  0.3672  0.3838
 5535TP3     H116617   3.837   3.485   4.741 -0.3496  0.2353 -0.0755
 5535TP3     H216618   3.930   3.589   4.684 -0.3358  1.2413  1.7037
 5536TP3      O16619   5.481   2.771   4.626  0.2596  0.0685  0.4140
 5536TP3     H116620   5.524   2.727   4.553 -0.0237  0.3258  0.0882
 5536TP3     H216621   5.493   2.712   4.700  0.5837 -0.1770  0.1700
 5537TP3      O16622   5.533   3.046   4.062 -0.5209 -0.0585 -0.0486
 5537TP3     H116623   5.575   3.119   4.108 -0.2413 -1.0451  1.3390
 5537TP3     H216624   5.556   3.059   3.970 -0.2262  1.4171  0.2002
 5538TP3      O16625   2.817   2.679   4.994  0.8413 -0.0895  0.0027
 5538TP3     H116626   2.850   2.727   5.070  1.0213 -0.7685  0.3631
 5538TP3     H216627   2.823   2.587   5.020  0.1566 -0.2910 -0.5334
 5539TP3      O16628   3.991   3.579   4.412  0.1533 -0.0536 -0.2425
 5539TP3     H116629   3.988   3.484   4.421  3.7894 -0.2413  0.6255
 5539TP3     H216630   4.022   3.594   4.323 -0.2821  0.3447 -0.3312
 5540TP3      O16631   5.057   3.630   5.618 -0.5990  0.0296 -0.6061
 5540TP3     H116632   5.001   3.558   5.590 -2.4934  0.8179  0.9876
 5540TP3     H216633   5.075   3.613   5.710 -0.5266  1.2657 -0.3794
 5541TP3      O16634   4.637   1.833   4.178 -0.2475  0.4350  0.3150
 5541TP3     H116635   4.585   1.763   4.218  0.7292 -0.0040  0.8352
 5541TP3     H216636   4.723   1.827   4.220  0.8294 -0.0586 -1.8308
 5542TP3      O16637   2.912   3.066   4.636  0.2436 -0.4800  0.7864
 5542TP3     H116638   2.934   3.159   4.628  1.4806 -0.7944  0.2397
 5542TP3     H216639   2.993   3.025   4.666  0.2127 -1.6150 -0.5886
 5543TP3      O16640   4.588   3.333   3.900 -0.4291 -0.6371 -0.4942
 5543TP3     H116641   4.533   3.332   3.979 -2.6094  1.2171 -1.8684
 5543TP3     H216642   4.650   3.405   3.916 -0.2300 -0.8989 -0.0781
 5544TP3      O16643   4.604   3.258   5.523  0.1761  0.7008 -0.3381
 5544TP3     H116644   4.638   3.216   5.444  2.1299 -0.5538  1.0702
 5544TP3     H216645   4.594   3.186   5.586  2.7189  2.0894  1.8657
 5545TP3      O16646   4.070   2.139   5.357 -0.3585  0.4771 -0.6970
 5545TP3     H116647   3.983   2.134   5.318  0.0139  0.1253 -1.4937
 5545TP3     H216648   4.131   2.128   5.284  0.3581 -0.3746 -0.0117
 5546TP3      O16649   5.182   2.786   4.563 -0.2696  0.0951  0.3873
 5546TP3     H116650   5.276   2.772   4.566  0.2186  2.7093 -0.8541
 5546TP3     H216651   5.156   2.758   4.476 -0.7431 -0.8897  0.8216
 5547TP3      O16652   5.479   3.355   3.996  0.3304 -0.2995  0.1657
 5547TP3     H116653   5.462   3.305   4.076  0.0292 -1.2420 -0.4701
 5547TP3     H216654   5.415   3.322   3.933 -0.9747  2.0139  0.1431
 5548TP3      O16655   3.921   2.553   4.000 -0.0548  0.9345 -0.6043
 5548TP3     H116656   3.881   2.544   4.086 -1.5404  0.9420 -1.2729
 5548TP3     H216657   3.848   2.564   3.940  0.8473 -0.8931 -2.1252
 5549TP3      O16658   4.214   2.553   4.209  0.4116 -0.0563  0.2605
 5549TP3     H116659   4.278   2.594   4.267  0.5166  1.9677 -1.1483
 5549TP3     H216660   4.181   2.479   4.258  1.7099  0.5641  2.2031
 5550TP3      O16661   4.801   3.479   4.926 -0.0416 -0.8995  0.1720
 5550TP3     H116662   4.850   3.489   4.845 -0.8908  1.5516 -0.1237
 5550TP3     H216663   4.862   3.504   4.995 -0.8446  2.8303 -0.2427
 5551TP3      O16664   5.212   2.625   5.712 -0.6167  0.0203 -0.3763
 5551TP3     H116665   5.174   2.538   5.709 -0.9428  0.0968  0.9563
 5551TP3     H216666   5.307   2.610   5.712 -0.6631 -0.2919 -0.7588
 5552TP3      O16667   0.574   1.870   0.217 -0.1066 -0.9009  0.3420
 5552TP3     H116668   0.592   1.787   0.261 -0.8953 -0.9428  0.6077
 5552TP3     H216669   0.499   1.850   0.160 -0.0598 -0.4642  0.1262
 5553TP3      O16670   4.544   3.023   0.213 -0.3404  0.3855  0.0018
 5553TP3     H116671   4.471   3.026   0.275 -0.2648  1.2407  0.0612
 5553TP3     H216672   4.589   3.107   0.226  1.5299 -0.7129  1.0392
 5554TP3      O16673   5.093   2.569   5.432 -0.1881 -0.0302  0.0635
 5554TP3     H116674   5.077   2.516   5.355 -0.3396  0.5910 -0.3410
 5554TP3     H216675   5.097   2.507   5.505 -1.6767 -0.4688 -0.2102
 5555TP3      O16676   5.726   2.530   4.195  0.0477  0.2583  0.4428
 5555TP3     H116677   5.744   2.609   4.144  1.1139  0.2798  0.8410
 5555TP3     H216678   5.812   2.490   4.210 -0.5027 -1.1846 -0.0622
 5556TP3      O16679   4.166   3.865   4.705 -0.2082 -0.0724  0.1016
 5556TP3     H116680   4.100   3.872   4.636  2.2019  1.2229 -2.2768
 5556TP3     H216681   4.231   3.805   4.670  0.6396 -0.1634  1.7227
 5557TP3      O16682   2.935   4.010   5.874 -0.5244 -0.1800 -0.0041
 5557TP3     H116683   2.946   4.059   5.956  0.3969  0.9333 -0.7519
 5557TP3     H216684   2.841   3.990   5.870 -0.3492 -1.8191  2.1467
 5558TP3      O16685   4.428   1.844   3.795 -0.1200  0.2855 -0.5954
 5558TP3     H116686   4.467   1.925   3.762 -0.1370  1.2230  1.5336
 5558TP3     H216687   4.335   1.863   3.802  0.0169  0.5380  0.9979
 5559TP3      O16688   0.102   2.695   5.634 -0.4577 -0.1325  0.2850
 5559TP3     H116689   0.082   2.707   5.727 -1.0438 -1.9941  0.4393
 5559TP3     H216690   0.184   2.744   5.621 -0.4528  0.2957  1.7287
 5560TP3      O16691   5.530   3.006   4.713  0.4548  0.0640  0.6685
 5560TP3     H116692   5.625   2.990   4.717  0.2531 -1.0833  1.2305
 5560TP3     H216693   5.493   2.922   4.688 -0.4048  0.5892  0.1418
 5561TP3      O16694   3.776   2.100   5.056  0.0659  0.7063 -0.0768
 5561TP3     H116695   3.729   2.168   5.105 -1.4241 -0.2154 -0.1661
 5561TP3     H216696   3.802   2.036   5.122 -1.7135 -0.4053 -0.4045
 5562TP3      O16697   4.464   3.450   4.145 -0.0225 -0.2114 -0.2845
 5562TP3     H116698   4.552   3.485   4.132 -0.3101  0.9714  0.7454
 5562TP3     H216699   4.405   3.523   4.125 -0.7632 -0.9043 -0.7001
 5563TP3      O16700   4.234   3.682   4.076 -0.1421 -0.0558 -0.1347
 5563TP3     H116701   4.210   3.695   3.984 -0.4079  2.3118  0.2002
 5563TP3     H216702   4.151   3.666   4.120 -0.0539 -0.8415 -0.2441
 5564TP3      O16703   5.646   2.807   4.028  0.4084  0.4310 -0.6174
 5564TP3     H116704   5.579   2.758   3.980  0.2195 -0.7095  0.7188
 5564TP3     H216705   5.600   2.883   4.063 -0.2992 -0.4602  0.4814
 5565TP3      O16706   4.461   4.196   5.973 -0.0085  0.3687 -0.4735
 5565TP3     H116707   4.484   4.205   6.065 -0.1412 -0.0996 -0.3948
 5565TP3     H216708   4.386   4.254   5.961  0.4491  0.9848 -0.4562
 5566TP3      O16709   3.489   2.622   4.725  0.1377  0.4247  0.0273
 5566TP3     H116710   3.424   2.662   4.668  0.4030  0.0102 -0.5889
 5566TP3     H216711   3.567   2.676   4.714 -0.1555  1.0482  0.9309
 5567TP3      O16712   5.043   2.743   3.856 -0.2392 -0.5196 -0.1427
 5567TP3     H116713   5.034   2.661   3.808 -0.3831  0.0689 -1.1579
 5567TP3     H216714   5.132   2.773   3.837  0.3605 -1.1828  1.4745
 5568TP3      O16715   4.982   2.629   4.676  0.0565  0.1143 -0.2070
 5568TP3     H116716   5.077   2.628   4.665 -0.0317 -2.6341 -1.5234
 5568TP3     H216717   4.951   2.690   4.609  0.8367  0.5172 -0.2208
 5569TP3      O16718   4.762   2.670   3.765 -0.4799 -0.5405 -0.8062
 5569TP3     H116719   4.678   2.638   3.798 -0.1844 -2.8549 -2.0885
 5569TP3     H216720   4.824   2.651   3.836 -0.5098 -1.8807 -1.1112
 5570TP3      O16721   4.640   1.806   5.170 -0.0340 -0.2342 -0.0080
 5570TP3     H116722   4.569   1.808   5.106  0.0389 -1.7152 -0.1796
 5570TP3     H216723   4.670   1.896   5.176  2.1433 -0.4296 -4.5236
 5571TP3      O16724   5.249   4.404   3.916  0.7996 -0.1571  0.1508
 5571TP3     H116725   5.213   4.349   3.985  0.5433  1.4856  1.4013
 5571TP3     H216726   5.271   4.486   3.960 -0.2767  1.3142 -1.8986
 5572TP3      O16727   4.400   3.516   3.212 -0.4603 -0.3168 -0.0553
 5572TP3     H116728   4.387   3.475   3.127 -0.9505 -2.5612  1.0194
 5572TP3     H216729   4.483   3.480   3.243 -1.2243 -1.0816  1.2008
 5573TP3      O16730   4.362   2.044   4.375 -0.9037 -0.0362 -0.6906
 5573TP3     H116731   4.435   2.025   4.433  1.2604  1.0430 -2.8531
 5573TP3     H216732   4.300   1.974   4.390  0.0016 -0.3388  2.1137
 5574TP3      O16733   5.057   3.025   5.712  0.6772 -0.3357 -0.0479
 5574TP3     H116734   5.010   3.029   5.796  0.6773  0.9298 -0.0934
 5574TP3     H216735   5.053   2.933   5.687 -0.9651 -0.4119  0.4150
 5575TP3      O16736   4.423   3.780   3.745  0.0841 -0.2007 -0.3599
 5575TP3     H116737   4.348   3.831   3.774 -0.2484 -0.0617 -1.4086
 5575TP3     H216738   4.398   3.748   3.658  0.6863 -1.3106 -0.1474
 5576TP3      O16739   4.986   2.943   4.200 -0.5747  0.2479  0.4209
 5576TP3     H116740   4.928   2.879   4.158 -0.0391  0.4966 -0.7520
 5576TP3     H216741   5.042   2.974   4.128  2.2741 -1.3373  1.7509
 5577TP3      O16742   4.770   2.063   5.234  0.2248 -0.3244 -0.6726
 5577TP3     H116743   4.856   2.022   5.242  0.1523 -0.4045 -0.2728
 5577TP3     H216744   4.785   2.154   5.258 -0.1933 -0.7889  1.5542
 5578TP3      O16745   4.989   1.750   3.205 -0.3681 -0.3412  0.0722
 5578TP3     H116746   4.983   1.801   3.286  0.0403  1.7146 -1.1176
 5578TP3     H216747   4.905   1.764   3.162 -0.1864 -0.5527 -0.3588
 5579TP3      O16748   3.995   3.285   5.947 -0.3614 -0.0401 -0.5656
 5579TP3     H116749   3.967   3.313   6.034  0.0552  1.1005 -0.7764
 5579TP3     H216750   3.915   3.250   5.906 -1.1119  1.5886 -0.5557
 5580TP3      O16751   4.535   3.870   5.153 -0.0956  0.6347  0.3467
 5580TP3     H116752   4.561   3.962   5.142  1.2838  0.1248 -0.9503
 5580TP3     H216753   4.546   3.832   5.067 -1.9749 -0.4673  0.5502
 5581TP3      O16754   5.614   2.311   5.465 -0.2348  0.5923 -0.0030
 5581TP3     H116755   5.696   2.265   5.481  0.1500  0.9164 -0.9471
 5581TP3     H216756   5.638   2.404   5.469 -0.6403  0.6939  0.1115
 5582TP3      O16757   4.130   3.969   4.096 -0.0827  0.3420  0.3684
 5582TP3     H116758   4.111   3.937   4.184 -1.6870 -1.4444 -0.5677
 5582TP3     H216759   4.121   4.064   4.103 -4.3546  0.0668  1.3292
 5583TP3      O16760   4.991   2.256   5.260  0.1166  0.2977  0.0451
 5583TP3     H116761   4.914   2.313   5.265  0.0363  0.1430  0.8407
 5583TP3     H216762   5.061   2.311   5.226 -0.3750  0.4131 -0.7917
 5584TP3      O16763   4.274   1.162   4.383  0.0775 -0.3440 -0.3778
 5584TP3     H116764   4.288   1.142   4.476 -0.7904  0.8238  0.0407
 5584TP3     H216765   4.182   1.138   4.367  0.8212 -2.6807 -1.5774
 5585TP3      O16766   5.278   3.320   4.268 -0.1477 -0.0408  0.3124
 5585TP3     H116767   5.209   3.255   4.279  0.9990 -1.4524 -0.4708
 5585TP3     H216768   5.334   3.307   4.345 -0.0610  0.2293  0.2949
 5586TP3      O16769   4.747   1.295   3.872 -0.4193  0.2110  0.5325
 5586TP3     H116770   4.713   1.300   3.961 -0.8062  1.9861  0.3229
 5586TP3     H216771   4.670   1.277   3.818 -0.5377  1.1509  0.3708
 5587TP3      O16772   4.926   2.621   4.941 -0.2774  0.0661 -1.1129
 5587TP3     H116773   4.843   2.667   4.946  0.4680  1.3550  0.2396
 5587TP3     H216774   4.951   2.627   4.849 -0.6372  1.6233 -1.1418
 5588TP3      O16775   3.780   2.850   5.258 -0.1024  0.2638  0.1873
 5588TP3     H116776   3.722   2.926   5.251 -2.0557 -1.3199 -3.2365
 5588TP3     H216777   3.726   2.775   5.234  2.2412 -2.0435  1.4631
 5589TP3      O16778   4.736   2.812   4.424  0.1349 -0.1888 -0.0539
 5589TP3     H116779   4.794   2.888   4.425  0.8708 -0.7422  0.5643
 5589TP3     H216780   4.716   2.798   4.332  0.5996  0.3025 -0.2344
 5590TP3      O16781   4.846   3.058   4.406  0.3806  0.2989  0.0765
 5590TP3     H116782   4.809   3.138   4.369 -2.4551 -0.7199  0.4819
 5590TP3     H216783   4.890   3.016   4.333  0.1862  1.2686 -0.6220
 5591TP3      O16784   5.296   3.594   4.806 -0.5135  0.0629 -0.0318
 5591TP3     H116785   5.284   3.513   4.855  0.6673  0.3806  0.8291
 5591TP3     H216786   5.382   3.626   4.832 -0.6818  1.2666 -0.8391
 5592TP3      O16787   4.567   2.031   4.602 -0.0978 -0.3377  0.0144
 5592TP3     H116788   4.658   2.011   4.582  0.8322  2.2255  1.1933
 5592TP3     H216789   4.570   2.071   4.689 -1.6172  3.7693 -1.5566
 5593TP3      O16790   4.638   2.988   5.967  0.0628  0.3222 -0.1817
 5593TP3     H116791   4.651   2.896   5.942 -0.2690  0.4646 -0.8826
 5593TP3     H216792   4.581   2.984   6.044 -0.9918 -0.0217 -0.9505
 5594TP3      O16793   4.667   1.292   5.406 -0.4097  0.0384 -0.3090
 5594TP3     H116794   4.674   1.382   5.438 -0.4851  0.9085 -2.5194
 5594TP3     H216795   4.756   1.258   5.414 -0.5493 -0.0103  1.3171
 5595TP3      O16796   5.659   2.457   3.934  0.2105 -0.6284  0.4352
 5595TP3     H116797   5.648   2.472   4.028  0.8383 -0.0097  0.4258
 5595TP3     H216798   5.570   2.443   3.901 -0.0364 -0.6369  1.0879
 5596TP3      O16799   5.371   2.381   5.265 -0.2498  0.8738 -0.1316
 5596TP3     H116800   5.443   2.344   5.316 -0.2113 -2.0897 -2.0935
 5596TP3     H216801   5.414   2.438   5.201  0.0554  1.4342  0.5658
 5597TP3      O16802   5.338   2.772   5.178  0.0457 -0.1586 -0.4272
 5597TP3     H116803   5.392   2.737   5.107 -0.1694 -2.8331  0.6076
 5597TP3     H216804   5.400   2.791   5.248 -0.0791 -1.0419 -0.0598
 5598TP3      O16805   5.496   2.524   5.082  0.2720 -0.3971 -0.5119
 5598TP3     H116806   5.523   2.510   4.992 -1.3808  0.2349 -1.1334
 5598TP3     H216807   5.545   2.601   5.110 -0.2647  0.2514 -1.3405
 5599TP3      O16808   5.627   2.708   4.408 -0.0337 -0.4505  0.0877
 5599TP3     H116809   5.722   2.712   4.394  0.1832  0.1501  1.5072
 5599TP3     H216810   5.589   2.724   4.322  1.1588  0.5307 -0.2869
 5600TP3      O16811   3.841   3.051   4.343 -0.8607  0.2652  0.3918
 5600TP3     H116812   3.892   3.045   4.424  0.2832 -0.5804 -0.3549
 5600TP3     H216813   3.809   2.962   4.329  0.5554 -0.0872 -1.0402
 5601TP3      O16814   5.470   3.859   3.726  0.5206  0.1689  0.2623
 5601TP3     H116815   5.401   3.921   3.703  0.3874  0.0243  0.2721
 5601TP3     H216816   5.465   3.852   3.821  0.2389 -0.2001  0.2223
 5602TP3      O16817   5.531   2.768   3.314 -0.2300  0.2323 -0.0141
 5602TP3     H116818   5.450   2.737   3.274  1.1615 -0.0670 -2.9225
 5602TP3     H216819   5.536   2.861   3.289 -0.3945  0.6725  1.4983
 5603TP3      O16820   4.553   2.054   4.023 -0.1948  0.0948  0.2642
 5603TP3     H116821   4.571   1.968   4.063  1.8956  0.0168 -0.7092
 5603TP3     H216822   4.598   2.116   4.081  1.2285  0.1637 -0.8702
 5604TP3      O16823   5.114   2.360   5.627  0.1058  0.4433  0.2362
 5604TP3     H116824   5.159   2.294   5.575 -3.1463 -0.5202 -1.6313
 5604TP3     H216825   5.071   2.312   5.696  0.1107  1.0429  0.6688
 5605TP3      O16826   4.068   2.369   4.811 -0.0894 -0.0212 -0.1936
 5605TP3     H116827   4.119   2.434   4.762  0.3418  0.6734  1.1265
 5605TP3     H216828   4.092   2.384   4.902 -0.4988 -1.6046  0.2082
 5606TP3      O16829   5.527   4.132   0.884  0.5790 -0.1641 -0.3356
 5606TP3     H116830   5.593   4.062   0.880 -1.5669 -2.3413  0.0519
 5606TP3     H216831   5.472   4.118   0.807 -0.4165  0.5420  0.2234
 5607TP3      O16832   5.440   3.014   5.302 -0.2241 -0.4877 -0.0989
 5607TP3     H116833   5.440   3.101   5.261 -1.2239 -1.2009 -1.7129
 5607TP3     H216834   5.360   3.012   5.354 -1.5691 -1.2683 -2.0709
 5608TP3      O16835   0.221   3.166   4.744  0.3585 -0.2780 -0.1248
 5608TP3     H116836   0.176   3.081   4.746 -0.0058 -0.1139 -0.8531
 5608TP3     H216837   0.182   3.215   4.816 -0.3014 -0.3061 -0.4534
 5609TP3      O16838   5.086   2.368   4.930 -0.0487 -0.0521 -0.4192
 5609TP3     H116839   5.122   2.384   5.017  0.0168  1.4111 -0.6915
 5609TP3     H216840   5.031   2.444   4.912  0.7815  0.1998 -2.0848
 5610TP3      O16841   4.890   3.065   5.319 -0.7333 -0.0019 -0.6546
 5610TP3     H116842   4.879   3.100   5.231  0.1607 -0.8160 -1.1059
 5610TP3     H216843   4.980   3.034   5.322  0.6484  3.5210  1.8253
 5611TP3      O16844   4.171   2.597   3.939  0.4694 -0.4584 -0.1181
 5611TP3     H116845   4.223   2.574   4.016 -1.3149 -0.2270  1.2267
 5611TP3     H216846   4.080   2.590   3.968 -0.4692 -3.4178 -3.0739
 5612TP3      O16847   4.216   3.071   5.356 -0.2842  0.2814 -0.3556
 5612TP3     H116848   4.195   3.153   5.312  0.3853  0.1768 -0.8811
 5612TP3     H216849   4.227   3.095   5.448 -2.5871  0.3638 -0.0419
 5613TP3      O16850   5.269   3.042   0.195 -0.6341  0.3024 -0.1241
 5613TP3     H116851   5.212   3.113   0.224 -2.0892 -0.3377 -1.3397
 5613TP3     H216852   5.358   3.076   0.209 -1.2862  1.7190  0.8108
 5614TP3      O16853   4.302   3.618   4.958  0.1174  0.3949 -0.5284
 5614TP3     H116854   4.306   3.687   4.892 -0.3532  0.8037 -0.1374
 5614TP3     H216855   4.249   3.656   5.029  2.0398  0.6496  0.8674
 5615TP3      O16856   4.171   3.321   4.156  0.3499 -0.2752 -0.3304
 5615TP3     H116857   4.263   3.346   4.168 -0.2020  1.2927  0.9818
 5615TP3     H216858   4.160   3.244   4.211  0.6715  0.0596  0.2094
 5616TP3      O16859   3.838   2.488   4.583  0.9303  0.0352 -0.9577
 5616TP3     H116860   3.925   2.527   4.574  0.9568  0.9910  2.0690
 5616TP3     H216861   3.785   2.557   4.623 -0.2698 -1.5577  0.3768
 5617TP3      O16862   5.792   2.963   4.682 -0.0676 -0.1575 -0.6206
 5617TP3     H116863   5.817   3.039   4.630  0.3458  0.5100  0.5121
 5617TP3     H216864   5.867   2.904   4.677  0.4954  0.4662  0.2313
 5618TP3      O16865   5.424   4.086   4.219 -0.6351  0.3053 -0.4123
 5618TP3     H116866   5.360   4.158   4.222 -2.0541 -0.9212  0.0275
 5618TP3     H216867   5.488   4.108   4.286 -1.6134  0.6523  0.4272
 5619TP3      O16868   5.558   2.132   4.301  0.0248  0.1401  0.2914
 5619TP3     H116869   5.559   2.085   4.385  0.3221  0.1551  0.2975
 5619TP3     H216870   5.531   2.221   4.324  2.3813  0.8051  0.7315
 5620TP3      O16871   4.220   3.836   5.491  0.4670 -0.1967 -0.0567
 5620TP3     H116872   4.256   3.777   5.425  1.4547  0.3987 -0.0681
 5620TP3     H216873   4.290   3.847   5.555 -0.0265  0.2444  0.4232
 5621TP3      O16874   4.515   2.328   4.791 -0.6034 -0.0187 -0.1524
 5621TP3     H116875   4.453   2.329   4.717  0.4634 -1.4670 -1.1399
 5621TP3     H216876   4.560   2.243   4.782  3.3255  1.9245 -1.0370
 5622TP3      O16877   5.010   2.213   5.833 -0.5183 -0.3570 -0.0748
 5622TP3     H116878   5.057   2.220   5.916 -1.8087 -0.7323  0.7139
 5622TP3     H216879   4.927   2.170   5.856 -0.8610 -0.5466 -1.5694
 5623TP3      O16880   4.544   1.380   0.418 -0.1007 -0.2069 -0.8062
 5623TP3     H116881   4.628   1.359   0.378 -1.0149 -1.6697 -2.0864
 5623TP3     H216882   4.565   1.398   0.509  1.4580 -1.8420 -0.7826
 5624TP3      O16883   4.133   2.334   5.874  0.1514 -0.0442  0.2624
 5624TP3     H116884   4.096   2.412   5.914  0.6414  0.0158  0.6157
 5624TP3     H216885   4.067   2.304   5.811  0.3180  1.1294 -0.4924
 5625TP3      O16886   4.919   2.870   3.551 -0.6739 -0.7011  0.2817
 5625TP3     H116887   4.868   2.812   3.607 -1.4416 -0.6400 -0.3346
 5625TP3     H216888   4.953   2.812   3.482 -1.9786 -0.3424 -0.7024
 5626TP3      O16889   4.580   2.702   4.619 -0.3147 -0.1646  0.4661
 5626TP3     H116890   4.554   2.792   4.638  0.5244 -0.0744  1.2636
 5626TP3     H216891   4.656   2.711   4.561  0.3042 -0.3335  1.2402
 5627TP3      O16892   4.825   3.248   3.696 -0.2987  0.0714  0.2163
 5627TP3     H116893   4.742   3.246   3.742 -0.1634  2.1053  0.6251
 5627TP3     H216894   4.889   3.272   3.763  0.1807  1.2436 -0.6311
 5628TP3      O16895   3.978   1.866   4.811  0.3833 -0.1768 -0.3764
 5628TP3     H116896   3.892   1.825   4.820  0.0731  0.8303  1.6701
 5628TP3     H216897   3.959   1.958   4.794  0.9871  0.3973  1.7527
 5629TP3      O16898   4.433   2.200   5.270  0.7882  0.9142 -0.0301
 5629TP3     H116899   4.517   2.162   5.296 -0.0337  0.9326  3.0454
 5629TP3     H216900   4.419   2.272   5.332 -1.1609  1.3690 -0.9147
 5630TP3      O16901   4.791   2.784   0.496  0.0306 -0.2256 -0.5598
 5630TP3     H116902   4.776   2.868   0.452 -0.3772 -0.0354 -0.0706
 5630TP3     H216903   4.867   2.800   0.552 -0.7159  0.1603  0.3736
 5631TP3      O16904   4.918   2.979   0.274  0.4557  0.2189  0.0839
 5631TP3     H116905   4.919   3.056   0.332 -0.1615  1.8895 -1.9852
 5631TP3     H216906   4.935   3.015   0.187  0.7931 -2.1193 -0.8770
 5632TP3      O16907   3.331   2.309   4.338  0.5784  0.0840  0.7749
 5632TP3     H116908   3.351   2.245   4.407  0.4561 -0.5159  0.2615
 5632TP3     H216909   3.287   2.381   4.384  1.0936 -0.0071  1.4213
 5633TP3      O16910   4.515   1.423   3.927  0.0241  0.1762 -0.0575
 5633TP3     H116911   4.445   1.393   3.868  0.0269  1.5987 -0.8237
 5633TP3     H216912   4.477   1.497   3.974  0.5349  0.0113  0.6298
 5634TP3      O16913   4.755   2.434   5.234  0.1101  0.1036 -0.0533
 5634TP3     H116914   4.773   2.528   5.243  0.6063  0.2000 -1.6581
 5634TP3     H216915   4.681   2.430   5.173 -0.7867 -0.5237  1.0514
 5635TP3      O16916   4.870   3.552   0.092  0.2835  0.1432  0.0507
 5635TP3     H116917   4.911   3.582   0.174 -0.6414  1.0849  0.1857
 5635TP3     H216918   4.844   3.632   0.047 -2.3747 -0.3962  0.4677
 5636TP3      O16919   5.267   3.018   0.634 -0.1103 -0.1644  1.3991
 5636TP3     H116920   5.175   3.017   0.608 -0.2514 -0.7365  1.8981
 5636TP3     H216921   5.279   3.101   0.679 -0.0018  0.5989  0.0263
 5637TP3      O16922   3.198   2.690   0.128  0.2827 -0.6393 -0.6966
 5637TP3     H116923   3.187   2.722   0.038 -0.2311  1.7438  0.1645
 5637TP3     H216924   3.137   2.616   0.134 -1.3434  0.5605 -1.6679
 5638TP3      O16925   5.179   2.264   3.465  0.2810  0.2960 -0.5896
 5638TP3     H116926   5.109   2.324   3.440  0.8388  1.7538  1.1673
 5638TP3     H216927   5.142   2.177   3.450 -1.2672  1.0303 -1.3027
 5639TP3      O16928   4.835   2.456   4.051  0.4631 -0.1327  0.4298
 5639TP3     H116929   4.893   2.414   3.987 -0.3447 -0.6830  0.0375
 5639TP3     H216930   4.888   2.466   4.130  1.1213 -0.5035  0.0368
 5640TP3      O16931   5.140   3.231   5.071 -0.5354  0.1132  0.1363
 5640TP3     H116932   5.058   3.184   5.055 -0.5954  1.0399 -2.8654
 5640TP3     H216933   5.113   3.316   5.105 -0.7155 -0.2217  0.8336
 5641TP3      O16934   4.384   2.587   4.432 -0.2965 -0.4586 -0.3921
 5641TP3     H116935   4.460   2.602   4.489 -2.1945  1.3729  1.8517
 5641TP3     H216936   4.377   2.667   4.380 -1.0968 -0.2960 -0.0442
 5642TP3      O16937   4.478   3.379   4.394 -0.8070  0.3171 -0.1297
 5642TP3     H116938   4.399   3.404   4.442  0.2985  0.5450  1.6474
 5642TP3     H216939   4.462   3.411   4.305 -2.7513  0.2423  0.1341
 5643TP3      O16940   5.636   2.239   5.190 -0.3920  0.5091 -0.1016
 5643TP3     H116941   5.662   2.268   5.277  0.7539 -0.3847 -0.1270
 5643TP3     H216942   5.570   2.303   5.162 -0.1922  1.2585  1.0868
 5644TP3      O16943   4.500   2.646   5.760 -0.6463  0.0168  0.0805
 5644TP3     H116944   4.588   2.637   5.794 -1.3314  2.3837  2.9011
 5644TP3     H216945   4.449   2.580   5.806 -0.7978  0.4222  0.5074
 5645TP3      O16946   4.506   3.065   3.937  0.5332 -0.3680  0.3601
 5645TP3     H116947   4.545   3.020   3.862 -0.1674  0.5738 -0.5831
 5645TP3     H216948   4.523   3.158   3.922 -1.8453  0.0726  0.0006
 5646TP3      O16949   4.827   3.800   4.953 -0.2597 -0.1621  0.0712
 5646TP3     H116950   4.917   3.793   4.984 -0.9944 -2.1335  2.0746
 5646TP3     H216951   4.798   3.709   4.941 -2.0098  0.4136 -0.4155
 5647TP3      O16952   4.526   3.615   4.632 -0.7481  0.1705  0.2742
 5647TP3     H116953   4.486   3.528   4.628  0.2690 -0.2761 -2.9735
 5647TP3     H216954   4.614   3.602   4.596  0.2129  2.1946  1.7161
 5648TP3      O16955   3.659   2.356   5.160  0.4172 -0.6990  0.3606
 5648TP3     H116956   3.612   2.419   5.105 -1.2920 -2.5880 -0.5016
 5648TP3     H216957   3.724   2.408   5.207 -0.8936  1.6707 -0.2942
 5649TP3      O16958   4.336   2.843   4.320 -0.6412  0.9173  0.0971
 5649TP3     H116959   4.387   2.896   4.381  1.9139  0.1927 -1.2879
 5649TP3     H216960   4.320   2.901   4.245 -1.7264  1.0612  0.4161
 5650TP3      O16961   3.095   2.619   5.708  0.4497  0.8220 -0.3769
 5650TP3     H116962   3.031   2.590   5.772  1.6725  0.4278  0.7248
 5650TP3     H216963   3.085   2.559   5.635 -0.6188  0.9512 -0.3477
 5651TP3      O16964   5.466   3.371   5.372  0.2104  0.0397 -0.3306
 5651TP3     H116965   5.444   3.309   5.441 -1.7371  0.8826 -0.1177
 5651TP3     H216966   5.461   3.320   5.291 -0.4160 -0.3022 -0.0824
 5652TP3      O16967   3.987   3.078   3.969 -0.1499  0.3801 -0.3168
 5652TP3     H116968   3.899   3.044   3.981 -0.2179  0.2467 -1.1491
 5652TP3     H216969   4.036   3.006   3.929  0.7007 -0.0034  1.2921
 5653TP3      O16970   5.756   1.850   5.014 -0.0125 -0.4233  0.1461
 5653TP3     H116971   5.806   1.769   4.999  1.0660  0.2497 -0.0496
 5653TP3     H216972   5.674   1.821   5.053 -0.2941 -1.7393 -1.3255
 5654TP3      O16973   3.489   4.921  -0.009 -0.0961 -0.8419 -0.1489
 5654TP3     H116974   3.405   4.967  -0.006  0.5759  0.4164 -0.0427
 5654TP3     H216975   3.533   4.947   0.072  0.4414 -1.4159 -0.2506
 5655TP3      O16976   4.465   3.353   4.734  0.5643 -0.6318 -0.0224
 5655TP3     H116977   4.505   3.288   4.792  0.7709 -1.8444 -1.4632
 5655TP3     H216978   4.450   3.306   4.651 -2.2860  0.2503 -0.1132
 5656TP3      O16979   4.519   3.075   4.439 -0.0440  0.4527  0.1132
 5656TP3     H116980   4.525   3.140   4.370  1.0204  0.0286 -0.2191
 5656TP3     H216981   4.593   3.016   4.423 -0.3393 -0.2007  1.0485
 5657TP3      O16982   3.876   1.232   4.154 -0.1732  0.0649 -0.1565
 5657TP3     H116983   3.835   1.197   4.074 -0.8471 -2.4608  1.1953
 5657TP3     H216984   3.878   1.158   4.214  0.2481  1.9061  2.2276
 5658TP3      O16985   3.205   3.104   5.297 -0.0056  0.3791 -0.1204
 5658TP3     H116986   3.185   3.011   5.312  1.6206  0.2550  1.6262
 5658TP3     H216987   3.121   3.148   5.308 -0.5744 -0.7572  0.3087
 5659TP3      O16988   4.848   2.697   5.222  0.3394  0.5149  0.1182
 5659TP3     H116989   4.879   2.639   5.153  1.3496 -1.9947  2.4656
 5659TP3     H216990   4.924   2.749   5.247  1.3539 -1.7290  2.1560
 5660TP3      O16991   4.866   1.870   4.586 -0.5330 -1.0045  0.3038
 5660TP3     H116992   4.879   1.942   4.647 -2.1533  0.1061 -0.5798
 5660TP3     H216993   4.917   1.895   4.508 -0.6120 -1.1245  0.2125
 5661TP3      O16994   5.139   3.795   4.996  0.1858  0.0801  0.0917
 5661TP3     H116995   5.188   3.859   5.049 -2.6146 -0.0543  3.2029
 5661TP3     H216996   5.207   3.744   4.952  2.8802  0.5386  3.2578
 5662TP3      O16997   4.728   3.221   4.882 -0.0589 -0.9915 -0.0899
 5662TP3     H116998   4.747   3.303   4.927 -0.0417 -1.7389  1.3525
 5662TP3     H216999   4.745   3.239   4.790  0.5842  0.4257  0.2775
 5663TP3      O17000   3.202   2.974   4.610  0.0432  0.3619  0.2754
 5663TP3     H117001   3.199   2.999   4.703 -1.8589 -0.6355  0.5196
 5663TP3     H217002   3.255   3.043   4.569  0.5371  1.0790  2.0036
 5664TP3      O17003   4.823   3.946   5.518  0.0910 -0.0458 -0.0499
 5664TP3     H117004   4.773   3.998   5.581  0.7535  0.5775 -0.0216
 5664TP3     H217005   4.763   3.878   5.489  0.1565 -1.1550  2.2126
 5665TP3      O17006   5.518   1.650   3.603 -0.4083 -0.4286  0.4922
 5665TP3     H117007   5.513   1.555   3.614 -0.5744 -0.5685 -0.6181
 5665TP3     H217008   5.494   1.664   3.511 -0.8049  0.7271  0.7559
 5666TP3      O17009   5.267   3.877   4.678 -0.4681 -0.0063 -0.3140
 5666TP3     H117010   5.246   3.783   4.685 -0.0080  0.0128  2.3207
 5666TP3     H217011   5.227   3.916   4.756  1.5177  1.5495  0.0085
 5667TP3      O17012   3.896   3.511   5.485  0.2762 -0.4279 -0.3837
 5667TP3     H117013   3.971   3.467   5.526 -0.1059 -1.1597 -0.4485
 5667TP3     H217014   3.929   3.598   5.462  0.3645  0.2425  1.9618
 5668TP3      O17015   3.731   2.738   4.696  0.1205 -0.0329 -0.0970
 5668TP3     H117016   3.721   2.821   4.742 -1.8825  1.1282 -2.3861
 5668TP3     H217017   3.805   2.752   4.637  1.4723 -0.8616  1.3342
 5669TP3      O17018   4.695   2.879   5.494 -0.0525 -0.2053  0.0580
 5669TP3     H117019   4.757   2.930   5.443 -0.5849  0.4235  0.0254
 5669TP3     H217020   4.731   2.790   5.494 -0.0202 -0.2038 -1.3514
 5670TP3      O17021   3.932   3.260   3.278  0.0281 -0.1370 -0.0580
 5670TP3     H117022   4.011   3.291   3.322  1.4233 -0.4836 -2.1776
 5670TP3     H217023   3.938   3.165   3.281  0.1108 -0.1696 -0.8726
 5671TP3      O17024   4.617   2.482   5.004 -0.2855  0.0173  0.2757
 5671TP3     H117025   4.628   2.566   4.960  1.8456 -0.3908 -0.0609
 5671TP3     H217026   4.580   2.425   4.937  1.5801 -0.2112 -0.6278
 5672TP3      O17027   0.082   1.737   3.933  0.1346 -0.4871 -0.1591
 5672TP3     H117028   0.057   1.693   3.852 -0.0510  0.2053 -0.4811
 5672TP3     H217029   0.053   1.827   3.922  0.5372 -0.2699  0.4846
 5673TP3      O17030   3.071   2.453   4.153 -0.0188 -0.3018  0.2729
 5673TP3     H117031   3.018   2.484   4.226 -2.4838 -1.0627 -1.0831
 5673TP3     H217032   3.152   2.504   4.159 -1.5919  2.2857  1.3971
 5674TP3      O17033   5.106   3.493   3.911  0.6864  0.0875 -0.1893
 5674TP3     H117034   5.109   3.580   3.869  0.2796  1.1195  1.8096
 5674TP3     H217035   5.132   3.509   4.001 -1.1547 -1.5464  0.7040
 5675TP3      O17036   4.494   3.050   5.326 -0.4677 -0.1712  0.1365
 5675TP3     H117037   4.426   3.043   5.394  1.2656  1.6758  2.2047
 5675TP3     H217038   4.477   3.134   5.284  0.6723  0.4750  0.9099
 5676TP3      O17039   5.268   2.955   4.116  0.2238  0.3525 -0.4169
 5676TP3     H117040   5.255   2.985   4.206 -0.9643  0.2539 -0.5382
 5676TP3     H217041   5.357   2.981   4.094  0.3012  0.9512  0.5683
 5677TP3      O17042   5.797   3.519   4.558 -0.2428 -0.0297 -0.2351
 5677TP3     H117043   5.773   3.511   4.466  0.5794  0.9652 -0.5669
 5677TP3     H217044   5.843   3.603   4.563 -1.1202  0.4023  1.2755
 5678TP3      O17045   3.645   4.077   4.493  0.3986 -0.0127 -0.8437
 5678TP3     H117046   3.648   4.021   4.571 -3.5972  0.4062 -0.1653
 5678TP3     H217047   3.730   4.121   4.492  1.5036 -1.8037  1.8802
 5679TP3      O17048   5.835   2.480   5.399 -0.3120  0.6884 -0.7998
 5679TP3     H117049   5.890   2.558   5.388  2.5316 -1.0483  0.0371
 5679TP3     H217050   5.882   2.427   5.463 -0.9867 -2.6532 -2.8285
 5680TP3      O17051   4.900   3.113   5.047  0.3744 -0.6258  0.4110
 5680TP3     H117052   4.849   3.033   5.056 -1.0566  0.3705  1.7766
 5680TP3     H217053   4.857   3.161   4.976  0.1519 -0.3122  0.7557
 5681TP3      O17054   4.897   2.182   4.330 -0.7616  0.6638 -0.3519
 5681TP3     H117055   4.944   2.264   4.340 -0.7405  0.6364 -0.2281
 5681TP3     H217056   4.820   2.205   4.278 -1.0164  0.8597  0.1099
 5682TP3      O17057   3.825   3.528   3.547 -0.1671  0.9286  0.8029
 5682TP3     H117058   3.819   3.506   3.454 -0.3893  0.8162  0.8427
 5682TP3     H217059   3.907   3.577   3.555  0.8767 -0.7756  0.8887
 5683TP3      O17060   5.165   2.157   5.432 -0.2759 -0.6479 -0.1226
 5683TP3     H117061   5.192   2.065   5.422  0.8723 -0.4456  0.8268
 5683TP3     H217062   5.115   2.176   5.353 -1.1986 -2.3215  0.0062
 5684TP3      O17063   4.657   2.933   3.754 -0.1532  0.8562  0.2701
 5684TP3     H117064   4.691   2.844   3.757 -0.8786  0.5632  0.0469
 5684TP3     H217065   4.583   2.929   3.694  0.2772  1.7747 -0.3570
 5685TP3      O17066   3.508   3.134   5.918  0.0828  0.3902  0.6236
 5685TP3     H117067   3.507   3.041   5.943 -0.4115 -0.1235 -1.1785
 5685TP3     H217068   3.442   3.174   5.974 -1.1860 -0.7592  0.0045
 5686TP3      O17069   5.019   2.640   1.594  0.7428 -0.5542 -0.0822
 5686TP3     H117070   5.075   2.563   1.603  2.4556  0.6518  0.0185
 5686TP3     H217071   5.050   2.700   1.662  0.3514  0.7442 -1.0200
 5687TP3      O17072   5.010   3.014   3.939 -0.0459 -0.4651  0.1564
 5687TP3     H117073   5.021   2.920   3.924  0.0967 -0.2832 -0.9600
 5687TP3     H217074   4.916   3.030   3.924  0.0048 -0.3600 -0.0449
 5688TP3      O17075   5.755   3.442   6.015 -0.2394  0.2137  0.0193
 5688TP3     H117076   5.778   3.481   5.930 -1.0462 -0.0010 -0.3088
 5688TP3     H217077   5.701   3.367   5.993 -0.6756  0.3077  0.7311
 5689TP3      O17078   4.261   1.419   3.796 -0.6297  0.7586 -0.3670
 5689TP3     H117079   4.209   1.386   3.869 -1.2780  0.8532 -0.7740
 5689TP3     H217080   4.197   1.461   3.738  0.1996  2.9986  0.2539
 5690TP3      O17081   4.504   2.745   4.002 -0.6755  0.4417  0.3333
 5690TP3     H117082   4.484   2.748   3.909  1.0261  0.9528 -0.0503
 5690TP3     H217083   4.438   2.800   4.043 -2.4155 -1.0470 -0.3464
 5691TP3      O17084   4.033   2.702   5.129 -0.6122 -0.6419 -0.0580
 5691TP3     H117085   4.019   2.755   5.207  0.8995 -0.6468  0.2495
 5691TP3     H217086   4.126   2.679   5.132 -0.5806 -0.8649 -1.7249
 5692TP3      O17087   5.361   4.595   4.560  0.0825 -0.0995 -0.1298
 5692TP3     H117088   5.394   4.652   4.630 -0.5707 -1.6893  1.5484
 5692TP3     H217089   5.433   4.591   4.497  0.3994  1.9905  0.0244
 5693TP3      O17090   4.276   2.802   0.223 -0.0856 -0.3640 -0.4226
 5693TP3     H117091   4.332   2.799   0.145  2.3079  0.2064  1.1477
 5693TP3     H217092   4.284   2.715   0.262  1.0791  0.1893  0.6521
 5694TP3      O17093   5.417   3.236   5.132 -0.4428 -0.1710  0.0133
 5694TP3     H117094   5.452   3.295   5.066  0.3201 -1.0935 -0.4422
 5694TP3     H217095   5.325   3.227   5.110 -0.2472 -0.2841 -0.7990
 5695TP3      O17096   4.465   3.800   5.686 -0.3017 -0.0653 -0.2385
 5695TP3     H117097   4.545   3.816   5.638  0.2554 -0.1802  0.6230
 5695TP3     H217098   4.494   3.775   5.774 -1.2769 -0.0713  0.1011
 5696TP3      O17099   5.133   2.461   5.166 -0.8003  0.3666 -0.0719
 5696TP3     H117100   5.225   2.435   5.177 -0.6697  0.3693 -1.0733
 5696TP3     H217101   5.133   2.555   5.181 -0.5126  0.4764 -0.6946
 5697TP3      O17102   3.800   2.483   4.259 -0.2412 -0.6639  0.2011
 5697TP3     H117103   3.827   2.452   4.346 -0.2520  0.5248  0.6529
 5697TP3     H217104   3.721   2.433   4.239  1.3804 -3.1416 -0.4882
 5698TP3      O17105   4.194   1.664   5.179  0.2240 -0.0289  0.3188
 5698TP3     H117106   4.243   1.654   5.098  0.4708 -1.4176  0.6118
 5698TP3     H217107   4.241   1.610   5.243 -1.0653 -0.5608  0.8700
 5699TP3      O17108   5.400   2.802   0.042  0.9620 -1.3965  0.3945
 5699TP3     H117109   5.394   2.733   0.108 -0.1179 -0.0456  1.7848
 5699TP3     H217110   5.426   2.880   0.091 -1.7551  0.1143 -0.3378
 5700TP3      O17111   5.813   2.117   5.007  0.4490  0.3651 -0.4086
 5700TP3     H117112   5.750   2.144   5.075 -0.1151 -2.6843  0.4050
 5700TP3     H217113   5.788   2.028   4.985  3.7631 -0.5514 -0.9740
 5701TP3      O17114   4.220   3.176   2.732  0.0046  0.1562 -0.4899
 5701TP3     H117115   4.229   3.174   2.827 -1.6328  0.1563 -0.3071
 5701TP3     H217116   4.287   3.115   2.701 -0.4077 -0.9937  0.7588
 5702TP3      O17117   4.085   3.617   5.127 -0.3816 -0.3260  0.1159
 5702TP3     H117118   4.070   3.655   5.214 -3.9503  1.0750 -0.9347
 5702TP3     H217119   4.011   3.647   5.074  1.8224 -0.7692 -3.5875
 5703TP3      O17120   4.796   2.429   4.590 -0.4298  0.6061 -0.2437
 5703TP3     H117121   4.881   2.456   4.627 -0.2697 -0.4547  0.2123
 5703TP3     H217122   4.731   2.470   4.647 -0.1861 -0.6276  0.9812
 5704TP3      O17123   4.891   3.548   4.304  0.3084  0.4590  0.0024
 5704TP3     H117124   4.880   3.454   4.319  1.7612 -0.3658 -3.2444
 5704TP3     H217125   4.985   3.564   4.317  0.4680  0.9557 -1.5941
 5705TP3      O17126   0.253   2.902   4.401 -0.2178  0.4714 -0.7247
 5705TP3     H117127   0.230   2.811   4.380  1.2922 -0.2845  0.6577
 5705TP3     H217128   0.321   2.895   4.468  1.0080  2.6005 -1.6278
 5706TP3      O17129   3.516   2.979   5.316 -0.2834  0.2053 -0.0564
 5706TP3     H117130   3.446   2.965   5.252 -0.8569  1.4800  0.2652
 5706TP3     H217131   3.513   2.901   5.372 -2.3163  0.7700  0.7155
 5707TP3      O17132   3.590   3.090   4.095  0.0356  0.3148  1.4828
 5707TP3     H117133   3.627   3.094   4.183  1.5066  2.8596  0.8917
 5707TP3     H217134   3.532   3.166   4.090  1.4281  1.3704 -0.2173
 5708TP3      O17135   4.149   3.349   5.263  0.1408 -0.1857 -0.0582
 5708TP3     H117136   4.142   3.426   5.207 -1.7126  0.6315  1.2131
 5708TP3     H217137   4.229   3.364   5.314  1.6515 -0.7683 -2.1252
 5709TP3      O17138   5.516   2.819   4.965  0.3514 -0.0141 -0.0750
 5709TP3     H117139   5.479   2.907   4.975 -0.5014 -0.1002 -1.8906
 5709TP3     H217140   5.611   2.832   4.975  0.1505  0.8926  0.8599
 5710TP3      O17141   3.298   2.068   4.035  0.1973 -0.2026 -0.1074
 5710TP3     H117142   3.318   2.082   4.127 -0.6972 -0.7217  0.1862
 5710TP3     H217143   3.244   2.143   4.010  0.0287 -0.3110 -0.0702
 5711TP3      O17144   5.784   2.155   4.123 -0.3024 -0.1809 -0.2866
 5711TP3     H117145   5.819   2.212   4.192  2.3593 -0.8035 -0.9935
 5711TP3     H217146   5.693   2.140   4.148 -0.2790  2.0357  1.4444
 5712TP3      O17147   4.223   1.471   4.600  0.2328  0.6329  0.2845
 5712TP3     H117148   4.196   1.540   4.661  0.8813  0.9521  0.2066
 5712TP3     H217149   4.174   1.394   4.630 -0.4865  1.1153  0.3769
 5713TP3      O17150   4.074   3.585   3.841  0.0441  0.2702  0.5457
 5713TP3     H117151   4.100   3.493   3.831  0.9377  0.5007  0.6315
 5713TP3     H217152   4.083   3.622   3.753 -1.6689 -0.0441  0.2164
 5714TP3      O17153   4.319   2.795   5.261 -0.2214 -0.4283  0.4958
 5714TP3     H117154   4.412   2.813   5.247 -0.5619 -0.8722 -3.3362
 5714TP3     H217155   4.284   2.876   5.298  1.3577  0.3985  0.2628
 5715TP3      O17156   4.890   1.162   5.396  0.2837 -0.2823  0.2700
 5715TP3     H117157   4.926   1.195   5.478  2.9078 -1.7539 -0.1961
 5715TP3     H217158   4.965   1.126   5.349 -1.3285 -0.5946 -2.2679
 5716TP3      O17159   4.096   2.374   5.095  0.9253  0.5450 -0.5784
 5716TP3     H117160   4.070   2.421   5.174  0.2862 -0.2810 -0.2890
 5716TP3     H217161   4.156   2.307   5.125 -0.1706 -0.4925 -0.6174
 5717TP3      O17162   4.111   3.247   4.970  0.6367  0.0906 -0.1469
 5717TP3     H117163   4.017   3.237   4.981  0.7253 -0.9185 -0.2191
 5717TP3     H217164   4.146   3.247   5.059  0.6787 -0.8271 -0.1543
 5718TP3      O17165   5.051   1.954   4.413  0.0411 -0.0785  0.3747
 5718TP3     H117166   5.033   1.894   4.340 -1.7752  1.0463 -0.1707
 5718TP3     H217167   5.012   2.037   4.386  1.4798  1.0635  1.6030
 5719TP3      O17168   5.922   1.655   4.963 -0.0948  0.1280  0.0421
 5719TP3     H117169   5.987   1.668   5.032 -1.2018 -0.2627  1.2057
 5719TP3     H217170   5.935   1.564   4.934  1.9040  0.9615 -1.9697
 5720TP3      O17171   5.672   0.918   3.677  0.2256 -0.1231  0.3018
 5720TP3     H117172   5.732   0.916   3.602  0.4025  2.5219  0.2957
 5720TP3     H217173   5.608   0.985   3.654  0.2162  0.6636  2.4471
 5721TP3      O17174   4.946   3.232   4.649 -0.2394  0.3494  0.0373
 5721TP3     H117175   4.888   3.174   4.599  0.3930 -0.0472 -0.2598
 5721TP3     H217176   5.026   3.179   4.662 -0.6672  0.1310  2.1562
 5722TP3      O17177   4.805   2.497   3.532  0.0112 -0.0181 -0.3057
 5722TP3     H117178   4.736   2.450   3.580  0.6732 -1.0178 -0.2962
 5722TP3     H217179   4.768   2.584   3.516 -1.1995 -0.4870 -0.1880
 5723TP3      O17180   3.758   2.435   5.841 -0.2247  0.8500 -0.0835
 5723TP3     H117181   3.788   2.380   5.769 -0.0304 -0.3541  0.8840
 5723TP3     H217182   3.791   2.523   5.820  2.3107 -0.0133 -0.0593
 5724TP3      O17183   0.505   1.358   0.284 -0.0547  0.0938 -0.3267
 5724TP3     H117184   0.523   1.295   0.214 -1.5978 -0.8339  0.0644
 5724TP3     H217185   0.585   1.410   0.290  0.8990 -1.1809 -1.3319
 5725TP3      O17186   5.549   3.834   1.134  0.1065 -0.1886 -0.1509
 5725TP3     H117187   5.574   3.783   1.056 -0.2564  0.5954 -0.7926
 5725TP3     H217188   5.459   3.859   1.118  0.4640  1.1829 -0.1407
 5726TP3      O17189   4.892   3.249   0.101 -0.2639 -0.1971  0.3929
 5726TP3     H117190   4.806   3.276   0.072 -0.0339  0.7642  0.5729
 5726TP3     H217191   4.951   3.319   0.073  0.0018  0.7017  2.9106
 5727TP3      O17192   5.743   3.454   1.428  0.6154  0.4328 -0.0894
 5727TP3     H117193   5.743   3.540   1.469  0.0585 -0.4301  1.8571
 5727TP3     H217194   5.836   3.429   1.425  0.7052  0.7192  0.2344
 5728TP3      O17195   3.647   3.750   0.184  0.1179  0.4012 -0.1099
 5728TP3     H117196   3.614   3.837   0.162  1.9488  1.5574  1.3563
 5728TP3     H217197   3.713   3.732   0.116  1.5186  1.3170  0.9599
 5729TP3      O17198   5.292   3.035   5.924 -0.7700 -0.2494  0.6094
 5729TP3     H117199   5.314   2.962   5.983 -1.1117 -1.7007 -0.9828
 5729TP3     H217200   5.209   3.068   5.959 -0.4574 -0.4020  1.5455
 5730TP3      O17201   5.299   2.736   0.706 -0.7826 -0.0868 -0.0083
 5730TP3     H117202   5.377   2.716   0.758  0.6076  2.5623 -0.8795
 5730TP3     H217203   5.289   2.831   0.714 -2.4834 -0.0408 -1.8862
 5731TP3      O17204   5.251   3.497   5.131 -0.1111  0.0205 -0.1583
 5731TP3     H117205   5.239   3.486   5.225 -2.1534  1.6312 -0.1635
 5731TP3     H217206   5.328   3.554   5.123  0.4994 -0.6903  0.4807
 5732TP3      O17207   3.826   1.999   5.336  0.2905 -0.5230 -0.4641
 5732TP3     H117208   3.882   1.929   5.369  1.0577  0.3103  0.0341
 5732TP3     H217209   3.741   1.984   5.378  0.6872 -0.6632  0.3009
 5733TP3      O17210   5.143   2.815   0.283  0.1722  0.1024  0.2339
 5733TP3     H117211   5.079   2.885   0.284 -0.9118 -0.8366 -0.7725
 5733TP3     H217212   5.226   2.858   0.264 -0.4251  1.1491 -0.0495
 5734TP3      O17213   4.307   2.231   1.054 -0.2294  0.0402 -0.1796
 5734TP3     H117214   4.234   2.215   0.994 -0.0922 -3.5451  0.4221
 5734TP3     H217215   4.277   2.199   1.139  1.9718 -1.4601  0.0996
 5735TP3      O17216   4.926   3.349   5.260 -0.0951 -0.1398  0.2050
 5735TP3     H117217   4.997   3.400   5.299 -0.2219 -0.2830  0.6316
 5735TP3     H217218   4.932   3.264   5.304  1.9473 -1.5490 -2.4704
 5736TP3      O17219   5.328   3.196   4.700 -0.3043 -0.3968 -0.0283
 5736TP3     H117220   5.255   3.138   4.679 -0.9405  0.6506 -0.7937
 5736TP3     H217221   5.394   3.138   4.738 -2.0897 -1.1454  2.1197
 5737TP3      O17222   5.424   3.223   5.594  0.2625 -0.2883 -0.0735
 5737TP3     H117223   5.441   3.132   5.618  0.0597  0.1521  1.8449
 5737TP3     H217224   5.428   3.271   5.676 -2.3667  1.0360 -0.6316
 5738TP3      O17225   4.568   2.187   0.107  0.2423  0.6311 -0.1593
 5738TP3     H117226   4.652   2.156   0.073 -0.0208 -0.7536  0.4026
 5738TP3     H217227   4.514   2.203   0.030  0.6923  0.5697 -0.4883
 5739TP3      O17228   4.799   4.108   0.133  0.8602 -0.2498 -0.2495
 5739TP3     H117229   4.799   4.175   0.065  0.1397  0.5437  0.5001
 5739TP3     H217230   4.887   4.112   0.170  0.7381  0.4998 -0.0191
 5740TP3      O17231   3.155   2.074  -0.014  0.4014  0.3797 -0.3184
 5740TP3     H117232   3.168   2.007   0.053  1.2265  0.4317 -0.4111
 5740TP3     H217233   3.150   2.156   0.035  1.5988  0.4857 -0.3383
 5741TP3      O17234   5.692   2.726   5.596  0.1225 -0.2858  0.1326
 5741TP3     H117235   5.745   2.654   5.628  1.6785  1.7073  2.3894
 5741TP3     H217236   5.651   2.763   5.674 -1.8349  0.4168 -1.1348
 5742TP3      O17237   0.107   1.963   4.202  0.1550  0.5375  0.0532
 5742TP3     H117238   0.060   1.881   4.188 -0.9567  0.7942  1.8404
 5742TP3     H217239   0.199   1.938   4.208 -0.3298 -1.0264  2.9172
 5743TP3      O17240   4.207   3.463   5.904 -0.5563 -0.3822  0.0776
 5743TP3     H117241   4.144   3.403   5.944  0.8234 -1.5097  0.6882
 5743TP3     H217242   4.230   3.524   5.974 -2.2620  1.1855 -0.6589
 5744TP3      O17243   0.229   4.198   0.377 -0.0029  0.2233 -0.6822
 5744TP3     H117244   0.211   4.224   0.467  0.4448 -0.7234 -0.3105
 5744TP3     H217245   0.185   4.264   0.324  1.8207  2.2891  0.2211
 5745TP3      O17246   5.550   3.621   0.178  0.6546  0.9018  0.0694
 5745TP3     H117247   5.472   3.625   0.123 -0.5221 -1.7567  1.3435
 5745TP3     H217248   5.605   3.555   0.136  0.7479  0.4668  0.8499
 5746TP3      O17249   4.222   2.524   0.258 -0.0605  0.3333 -0.4722
 5746TP3     H117250   4.155   2.527   0.326 -0.2872 -1.2048 -0.5910
 5746TP3     H217251   4.173   2.525   0.176 -0.1700 -2.8218 -0.5752
 5747TP3      O17252   4.751   2.713   5.951  0.0317 -0.0416  0.1563
 5747TP3     H117253   4.797   2.736   6.032 -0.3409 -0.0283  0.3663
 5747TP3     H217254   4.786   2.627   5.928  1.6565  0.8156 -0.7938
 5748TP3      O17255   5.424   3.751   5.954 -0.1132  0.4799  0.3329
 5748TP3     H117256   5.430   3.665   5.911 -0.0453  0.4898  0.3216
 5748TP3     H217257   5.488   3.805   5.908  0.1798  0.4051  0.6481
 5749TP3      O17258   3.767   1.821   0.566 -0.1753 -0.7454 -0.1076
 5749TP3     H117259   3.820   1.831   0.487  1.4124 -1.4161  0.8361
 5749TP3     H217260   3.754   1.910   0.598  1.1006 -0.6262  0.1045
 5750TP3      O17261   5.427   1.943   0.343 -0.3881  0.1624  0.1046
 5750TP3     H117262   5.423   1.855   0.307  1.2688 -0.1742  0.6984
 5750TP3     H217263   5.336   1.974   0.339 -0.6901 -0.7947 -1.9433
 5751TP3      O17264   5.030   3.260   5.564 -0.5938  0.0602  0.2116
 5751TP3     H117265   5.044   3.176   5.608 -0.1351  0.6317  1.1761
 5751TP3     H217266   4.939   3.283   5.585 -0.4136  0.2735  0.7666
 5752TP3      O17267   3.404   3.472   5.787 -0.4300 -0.6081 -0.1921
 5752TP3     H117268   3.311   3.484   5.768 -0.6423 -0.9486  0.5745
 5752TP3     H217269   3.406   3.453   5.881  0.6628  2.1808  0.4475
 5753TP3      O17270   4.191   3.475   0.878  0.3627  0.5162  0.2075
 5753TP3     H117271   4.243   3.398   0.855  0.2282  0.5335 -0.1529
 5753TP3     H217272   4.100   3.449   0.861  0.3752  1.0220 -0.6836
 5754TP3      O17273   4.010   2.266   5.636  0.2627  0.4957  0.4644
 5754TP3     H117274   4.039   2.212   5.563  0.4307  1.8418 -0.4920
 5754TP3     H217275   3.996   2.352   5.599 -0.8508  0.9299  1.7773
 5755TP3      O17276   4.843   2.160   5.569 -0.0428 -0.3800  0.4683
 5755TP3     H117277   4.916   2.169   5.507 -0.0692 -0.5911  0.4066
 5755TP3     H217278   4.855   2.073   5.607 -0.2133 -0.3787  0.5219
 5756TP3      O17279   4.113   3.447   4.808  0.0629 -0.5429  0.8825
 5756TP3     H117280   4.122   3.381   4.877  3.0867 -0.3796  0.8020
 5756TP3     H217281   4.168   3.520   4.837 -0.5695  0.5818 -0.5727
 5757TP3      O17282   4.389   3.697   5.312  0.4648 -0.2356 -0.0493
 5757TP3     H117283   4.441   3.617   5.304 -0.6306 -1.0368  0.6135
 5757TP3     H217284   4.434   3.761   5.256  0.7194 -1.6240 -1.4901
 5758TP3      O17285   4.353   3.134   5.594  0.1855 -0.1456 -0.7793
 5758TP3     H117286   4.431   3.145   5.648  0.5369  1.4829 -1.5687
 5758TP3     H217287   4.337   3.220   5.556 -1.5525 -0.6301 -1.2595
 5759TP3      O17288   5.168   3.418   5.409  0.1005 -1.0010 -0.7617
 5759TP3     H117289   5.256   3.380   5.416  0.4418  0.0255  1.0775
 5759TP3     H217290   5.121   3.384   5.485 -0.7415 -0.6141 -1.0932
 5760TP3      O17291   4.782   2.983   0.796  0.1404  0.5972  0.3023
 5760TP3     H117292   4.739   3.032   0.867 -0.1328 -1.4248  1.6285
 5760TP3     H217293   4.734   3.009   0.717  0.1100  2.5208  0.8982
 5761TP3      O17294   2.901   4.106   5.160  0.0006 -0.1448 -0.4255
 5761TP3     H117295   2.989   4.084   5.188  0.1061 -0.5458 -1.0729
 5761TP3     H217296   2.909   4.192   5.119  0.0251 -0.0139 -0.1443
 5762TP3      O17297   3.388   2.514   5.446 -1.1345  0.7847  0.5241
 5762TP3     H117298   3.331   2.465   5.504 -1.2358  0.1044 -0.1398
 5762TP3     H217299   3.359   2.491   5.358 -0.7360  1.5042  0.1955
 5763TP3      O17300   3.841   1.804   5.530  0.0036  0.6156  0.0586
 5763TP3     H117301   3.805   1.727   5.575  2.0903 -1.4702 -1.6142
 5763TP3     H217302   3.833   1.874   5.595 -0.5873 -1.3347  2.2647
 5764TP3      O17303   4.312   3.698  -0.009  0.1384  0.2685 -0.1320
 5764TP3     H117304   4.393   3.749  -0.001  0.5672 -0.4244  0.0764
 5764TP3     H217305   4.276   3.695   0.079  0.5421 -0.4591  0.0164
 5765TP3      O17306   5.100   1.468   0.164 -0.4558 -0.0072 -0.2098
 5765TP3     H117307   5.063   1.417   0.236 -0.0344 -1.0656 -0.7121
 5765TP3     H217308   5.190   1.486   0.191 -0.9302  1.4535  0.4508
 5766TP3      O17309   3.663   3.731   5.245 -0.0605 -0.6283 -0.7309
 5766TP3     H117310   3.670   3.716   5.340  0.7951 -0.2809 -0.7295
 5766TP3     H217311   3.730   3.796   5.226 -0.7428 -0.1132 -1.4591
 5767TP3      O17312   4.878   3.058   5.903  0.1362 -0.2134  0.6043
 5767TP3     H117313   4.794   3.023   5.934 -0.6236  0.1312 -0.9768
 5767TP3     H217314   4.899   3.127   5.965 -1.8464  1.1361 -0.1206
 5768TP3      O17315   5.238   1.173   0.254 -0.1521 -0.1824  0.3816
 5768TP3     H117316   5.177   1.218   0.313  1.0068 -0.8058  2.1110
 5768TP3     H217317   5.291   1.244   0.216  2.1188  0.0384  3.6028
 5769TP3      O17318   4.395   3.267   5.110 -0.2379 -0.3026  0.3347
 5769TP3     H117319   4.372   3.348   5.063 -0.5335 -1.6696 -2.0168
 5769TP3     H217320   4.480   3.285   5.149 -0.7863  1.4975  0.8049
 5770TP3      O17321   3.906   3.833   1.129  0.0573  0.2866  0.1709
 5770TP3     H117322   3.950   3.902   1.179 -0.9015  0.2039  1.1649
 5770TP3     H217323   3.946   3.838   1.042 -0.1359  2.2551  0.1395
 5771TP3      O17324   4.226   4.361   5.943  0.1532  0.2602 -0.3636
 5771TP3     H117325   4.162   4.418   5.987  0.1044 -0.2464  0.2402
 5771TP3     H217326   4.180   4.331   5.864  0.4992  1.7454 -1.1776
 5772TP3      O17327   4.404   4.753   1.297  0.4631 -0.3208  0.4078
 5772TP3     H117328   4.431   4.709   1.217  0.2990  0.7324 -0.2440
 5772TP3     H217329   4.340   4.694   1.336  1.3008 -1.3244  0.3077
 5773TP3      O17330   3.519   4.459   1.206  0.3270  0.4670  0.3466
 5773TP3     H117331   3.447   4.467   1.144  0.8123  1.2232 -0.1330
 5773TP3     H217332   3.597   4.485   1.157  0.7370  0.9666  1.2334
 5774TP3      O17333   4.237   0.080   1.135 -0.4105  0.7606  0.3100
 5774TP3     H117334   4.253   0.096   1.228  1.0956  1.9970 -0.1196
 5774TP3     H217335   4.198   0.161   1.102 -0.8698  0.3578 -0.1591
 5775TP3      O17336   0.058   4.843   0.121  0.4146  0.3996 -0.2592
 5775TP3     H117337   0.027   4.898   0.193  0.2291 -0.8526  0.6456
 5775TP3     H217338  -0.018   4.832   0.065 -0.0781 -0.4451  0.5436
 5776TP3      O17339   4.952   4.561  -0.019 -0.3825 -0.0360  0.4097
 5776TP3     H117340   4.990   4.649  -0.028 -1.7604  0.7455  1.8069
 5776TP3     H217341   4.988   4.528   0.063  0.3892 -0.9580 -0.2717
 5777TP3      O17342   5.522   4.023   5.206 -0.0178 -0.5375 -0.1515
 5777TP3     H117343   5.537   4.112   5.175 -1.8041  0.0385  0.5387
 5777TP3     H217344   5.608   3.993   5.237  0.0781  2.1175  2.5879
 5778TP3      O17345   3.991   4.391   0.966  0.1147  0.4631  0.4257
 5778TP3     H117346   3.927   4.424   0.903  0.4412  1.7847  0.7662
 5778TP3     H217347   4.074   4.390   0.918 -0.3061 -2.5246 -0.4480
 5779TP3      O17348   4.468   4.504   2.566 -0.1386  1.0594 -0.3307
 5779TP3     H117349   4.469   4.465   2.479 -1.1163  1.1985 -0.4195
 5779TP3     H217350   4.435   4.592   2.552 -0.6049  0.9747  0.2204
 5780TP3      O17351   4.630   4.919   5.775  0.5660  0.6581  0.2516
 5780TP3     H117352   4.605   5.000   5.731 -0.2448  1.1069  1.4881
 5780TP3     H217353   4.557   4.859   5.757 -0.5344  1.3325  2.1967
 5781TP3      O17354   4.594   4.797   2.472  0.5470 -0.2924  0.0998
 5781TP3     H117355   4.556   4.810   2.385  0.1569 -1.6496  0.0478
 5781TP3     H217356   4.666   4.736   2.457  1.2970  0.4566  0.5530
 5782TP3      O17357   4.552   4.987   1.365 -0.2594 -0.4047 -0.2607
 5782TP3     H117358   4.504   4.908   1.340  0.8726 -1.2653  0.2195
 5782TP3     H217359   4.565   5.034   1.282  1.5211 -2.1251 -1.0304
 5783TP3      O17360   5.157   4.796   0.579  0.1563 -0.3217 -0.6845
 5783TP3     H117361   5.113   4.724   0.624  1.4404 -0.9732 -0.3969
 5783TP3     H217362   5.184   4.855   0.649 -0.0511 -0.0589 -0.8291
 5784TP3      O17363   4.648   3.575   1.800  0.4068  0.7289  0.4539
 5784TP3     H117364   4.742   3.577   1.781  0.4138 -0.6950  0.2986
 5784TP3     H217365   4.606   3.579   1.714  0.3718 -0.9300  0.3758
 5785TP3      O17366   5.527   4.297   1.140  0.3315 -0.2065 -0.4966
 5785TP3     H117367   5.595   4.278   1.204 -0.8988 -0.7883  0.6932
 5785TP3     H217368   5.525   4.220   1.084  1.0483  0.0709 -0.9117
 5786TP3      O17369   4.470   0.272   5.984  0.4736  0.1527 -0.1591
 5786TP3     H117370   4.454   0.290   5.892  3.1543 -0.1042 -0.7514
 5786TP3     H217371   4.563   0.251   5.989  0.7389  1.5159  2.8278
 5787TP3      O17372   4.644   5.036   1.698 -0.1529 -0.5013 -0.3529
 5787TP3     H117373   4.610   5.101   1.636  3.9377  0.6538 -1.7149
 5787TP3     H217374   4.573   5.024   1.761 -1.8191  4.0785 -0.9494
 5788TP3      O17375   3.627   0.660   5.812 -0.3923  0.3290  0.1697
 5788TP3     H117376   3.566   0.650   5.886 -0.1835 -0.4940  0.2365
 5788TP3     H217377   3.597   0.595   5.748  0.1799  0.1939  0.0399
 5789TP3      O17378   3.573   5.148   2.616 -0.1896  0.3662  0.1419
 5789TP3     H117379   3.630   5.085   2.660  0.3083  0.5930 -0.1818
 5789TP3     H217380   3.569   5.119   2.525  0.3080  0.9843 -0.0841
 5790TP3      O17381   4.522   5.083   1.109 -0.4816 -1.0855 -0.0321
 5790TP3     H117382   4.431   5.066   1.085 -0.6657 -1.3322  0.8049
 5790TP3     H217383   4.572   5.053   1.033 -1.0729 -1.2974 -0.3517
 5791TP3      O17384   3.859   4.945   0.052 -0.1982  0.2249 -0.0694
 5791TP3     H117385   3.837   4.864   0.098  0.0240  0.1061 -0.1672
 5791TP3     H217386   3.784   5.002   0.066  0.2453  0.5394  1.2336
 5792TP3      O17387   4.538   3.990   1.715 -0.4113 -0.1506  0.2556
 5792TP3     H117388   4.475   3.929   1.678 -2.4512  0.7750  2.0329
 5792TP3     H217389   4.549   4.057   1.648 -0.4948 -0.8514 -0.4717
 5793TP3      O17390   3.599   4.845   1.195  0.3168  0.5192 -0.1635
 5793TP3     H117391   3.688   4.873   1.175  0.5677  0.4087  0.7662
 5793TP3     H217392   3.543   4.909   1.152  0.8650  2.0203  1.2892
 5794TP3      O17393   5.338   5.362   5.856 -0.2982 -0.3621  0.0242
 5794TP3     H117394   5.335   5.455   5.879 -1.7011 -0.2362 -0.5675
 5794TP3     H217395   5.255   5.326   5.889 -1.5608 -0.5641 -3.0689
 5795TP3      O17396   4.020   5.123   5.871 -0.1071 -0.1002 -0.1346
 5795TP3     H117397   3.981   5.073   5.943  0.3198 -0.1868  0.0359
 5795TP3     H217398   4.092   5.069   5.840  1.6746  1.2828  1.3770
 5796TP3      O17399   0.133   4.727   0.470  0.1934 -0.0446  0.1194
 5796TP3     H117400   0.198   4.785   0.432 -1.0136  1.5424  0.3731
 5796TP3     H217401   0.177   4.688   0.546  0.9782  0.6705  0.0405
 5797TP3      O17402   5.110   4.527   0.729 -0.5855  0.5140 -0.1075
 5797TP3     H117403   5.196   4.534   0.770 -1.7044 -0.2085  2.6290
 5797TP3     H217404   5.100   4.434   0.710 -1.7578  0.0845  2.2218
 5798TP3      O17405   4.522   4.046   1.999 -0.6965  0.0922  0.4885
 5798TP3     H117406   4.537   3.957   2.034  0.7192  0.8152  1.8580
 5798TP3     H217407   4.499   4.032   1.907  0.4197 -1.6503  0.4269
 5799TP3      O17408   4.419   5.438   0.953 -0.3550  0.0447  0.9496
 5799TP3     H117409   4.440   5.456   1.045  0.2653 -0.8549  0.9932
 5799TP3     H217410   4.329   5.405   0.955 -0.2775 -0.1507  1.2574
 5800TP3      O17411   5.536   5.476   1.703  0.3324  0.1256 -0.1935
 5800TP3     H117412   5.460   5.534   1.703  0.3924  0.2203  0.6974
 5800TP3     H217413   5.579   5.493   1.786  0.1935 -1.3955  0.2221
 5801TP3      O17414   3.911   2.810   0.396 -0.0956 -0.4106  0.1114
 5801TP3     H117415   3.834   2.857   0.428 -0.5605 -1.2530  0.2589
 5801TP3     H217416   3.984   2.868   0.416 -0.4814 -0.4594  1.8044
 5802TP3      O17417   4.428   4.821   1.585  0.1479  0.1395  0.3863
 5802TP3     H117418   4.433   4.750   1.521  0.5625 -0.1094  0.6859
 5802TP3     H217419   4.464   4.897   1.538  0.0870  0.0545  0.1983
 5803TP3      O17420   4.466   4.956   0.466  0.2881  0.6874 -0.3135
 5803TP3     H117421   4.391   4.925   0.517 -1.1847  0.5734 -2.4399
 5803TP3     H217422   4.522   4.999   0.530 -1.4596  0.5539  1.3910
 5804TP3      O17423   5.343   5.621   1.998 -0.8382  0.7372  0.6572
 5804TP3     H117424   5.425   5.656   1.964 -1.1322  0.3469 -0.4817
 5804TP3     H217425   5.284   5.619   1.923 -1.0574 -1.5064  0.8241
 5805TP3      O17426   4.382   3.352   2.295  0.6176  0.2743 -0.1874
 5805TP3     H117427   4.328   3.279   2.264 -0.6964  1.9248 -2.0316
 5805TP3     H217428   4.434   3.377   2.218 -2.7757  4.5457 -1.4918
 5806TP3      O17429   4.636   5.172   0.532 -0.0703 -0.0603  0.8528
 5806TP3     H117430   4.708   5.199   0.474 -0.9737  0.0133 -0.2590
 5806TP3     H217431   4.566   5.235   0.514 -1.5153 -1.9140 -0.3258
 5807TP3      O17432   5.286   5.336   0.741 -0.4877  0.4141  0.2592
 5807TP3     H117433   5.265   5.425   0.714  0.2873 -0.1666 -2.6469
 5807TP3     H217434   5.378   5.341   0.770 -0.7873  0.7283  1.1904
 5808TP3      O17435   3.801   4.367   0.355 -0.5287  0.0540 -0.2293
 5808TP3     H117436   3.787   4.294   0.294  0.4514 -2.0156  1.8470
 5808TP3     H217437   3.896   4.374   0.362 -0.5405  2.5559 -1.4105
 5809TP3      O17438   5.345   4.606   0.310 -0.1608 -0.7110 -0.0034
 5809TP3     H117439   5.409   4.581   0.243 -1.5020  0.3294 -1.7621
 5809TP3     H217440   5.398   4.642   0.381  1.2325  1.1287 -1.8424
 5810TP3      O17441   5.216   5.402   0.144  0.1699  0.6910  0.0034
 5810TP3     H117442   5.129   5.361   0.139  0.3059  0.1771  1.2369
 5810TP3     H217443   5.199   5.495   0.135 -0.2087  0.4544 -2.3779
 5811TP3      O17444   5.026   4.175   1.637 -0.5495  0.2328 -0.4515
 5811TP3     H117445   5.021   4.198   1.544  0.5689 -1.7517 -1.0468
 5811TP3     H217446   4.971   4.097   1.645 -3.1496  2.0592  1.2422
 5812TP3      O17447   4.840   3.990   1.727 -0.5557  0.5858 -0.7689
 5812TP3     H117448   4.860   3.972   1.819 -0.8403  0.8836 -0.6466
 5812TP3     H217449   4.745   3.982   1.721 -0.5376  0.5459 -1.0418
 5813TP3      O17450   4.738   4.430   1.789  0.3419 -0.5801  0.2658
 5813TP3     H117451   4.749   4.500   1.725 -0.4876 -0.1148  0.6180
 5813TP3     H217452   4.742   4.349   1.737 -1.3200 -0.1808 -0.5432
 5814TP3      O17453   4.509   3.835   3.260 -0.1949  0.2082  0.2870
 5814TP3     H117454   4.479   3.924   3.241  0.6858  0.6252  0.7606
 5814TP3     H217455   4.548   3.804   3.178 -0.4679  0.2761  0.1330
 5815TP3      O17456   4.550   4.654   0.721  0.3160  0.0669 -0.1442
 5815TP3     H117457   4.565   4.671   0.814  0.8433  0.8313 -0.3521
 5815TP3     H217458   4.632   4.614   0.691  0.0755 -0.3559 -0.2370
 5816TP3      O17459   4.391   4.290   1.153 -0.6172  0.3012  0.3056
 5816TP3     H117460   4.423   4.277   1.064 -1.3460  4.2907 -0.7182
 5816TP3     H217461   4.470   4.296   1.207  0.0153  1.4591 -0.7148
 5817TP3      O17462   3.870   5.678   1.657 -0.2774  0.0926 -0.1422
 5817TP3     H117463   3.882   5.604   1.716  1.5546 -1.3803 -2.2136
 5817TP3     H217464   3.776   5.679   1.638 -0.5454 -0.7610  1.0385
 5818TP3      O17465   5.330   5.582   0.634  0.0683  0.1985 -0.5208
 5818TP3     H117466   5.360   5.576   0.544 -1.4076 -1.2797 -0.9698
 5818TP3     H217467   5.245   5.626   0.628  0.5041  1.2190  0.3249
 5819TP3      O17468   5.290   4.259   0.995 -0.3680  0.3259  0.0850
 5819TP3     H117469   5.294   4.331   0.932  2.4543 -0.5868 -0.9335
 5819TP3     H217470   5.341   4.189   0.954  1.9138 -0.2010  3.4725
 5820TP3      O17471   4.105   5.415   5.944  0.0087 -0.0875  0.7003
 5820TP3     H117472   4.069   5.328   5.928  3.2453 -1.7444  1.5121
 5820TP3     H217473   4.151   5.436   5.863 -0.6367  0.8446  0.5636
 5821TP3      O17474   4.237   3.987   0.864 -0.4739 -0.7852 -0.3527
 5821TP3     H117475   4.297   3.917   0.892 -1.0314 -1.2296 -0.2434
 5821TP3     H217476   4.278   4.025   0.787 -0.4781 -1.6676 -0.7956
 5822TP3      O17477   5.086   0.348   0.793 -0.5017  0.6860 -1.0544
 5822TP3     H117478   4.999   0.387   0.799 -2.2010 -2.8903  0.8548
 5822TP3     H217479   5.127   0.367   0.878 -0.6469 -0.0847 -0.7989
 5823TP3      O17480   4.115   5.141   0.964 -0.3937  0.2921  0.1146
 5823TP3     H117481   4.181   5.076   0.937  0.6524  1.7129 -0.9322
 5823TP3     H217482   4.149   5.224   0.931 -2.4282  1.1762  0.0951
 5824TP3      O17483   0.491   5.522   0.461 -0.0958 -0.2884 -0.0604
 5824TP3     H117484   0.548   5.553   0.532  1.2169 -0.9843 -0.7684
 5824TP3     H217485   0.407   5.507   0.503 -0.0659  1.7405  0.8186
 5825TP3      O17486   4.792   4.606   1.600  0.4603  0.1774  0.4399
 5825TP3     H117487   4.866   4.666   1.585  0.4047  0.2108  0.2914
 5825TP3     H217488   4.756   4.591   1.512  1.1933 -0.9908  0.3199
 5826TP3      O17489   3.916   5.229   0.234  0.1975 -0.1767 -0.4803
 5826TP3     H117490   4.007   5.240   0.260  0.1771 -0.6272 -0.2173
 5826TP3     H217491   3.871   5.199   0.313 -0.3374  0.8186 -0.3997
 5827TP3      O17492   5.633   4.599   1.608 -0.0409  0.0173  0.1186
 5827TP3     H117493   5.664   4.662   1.673  0.2439 -0.7583  0.7506
 5827TP3     H217494   5.572   4.649   1.553  0.6006  0.9834  0.2557
 5828TP3      O17495   3.884   4.701   1.369  0.6393 -0.8130  0.2730
 5828TP3     H117496   3.837   4.752   1.304  1.7141  1.4945  1.2017
 5828TP3     H217497   3.856   4.611   1.354  0.4652 -0.3132 -2.9997
 5829TP3      O17498   4.629   5.422   0.744  0.4113 -0.6465  0.1920
 5829TP3     H117499   4.621   5.344   0.688  1.6940 -0.1763 -0.6720
 5829TP3     H217500   4.553   5.417   0.802 -0.5773 -1.5314 -1.1230
 5830TP3      O17501   3.518   3.778   1.625 -0.5512 -0.0837 -0.3532
 5830TP3     H117502   3.588   3.715   1.609  0.5713  0.7784  0.9068
 5830TP3     H217503   3.486   3.800   1.537  1.8984  0.6992 -1.1512
 5831TP3      O17504   5.551   5.721   4.480 -0.1984  0.0103 -0.0795
 5831TP3     H117505   5.619   5.775   4.521 -0.3250  0.4808 -0.4782
 5831TP3     H217506   5.591   5.689   4.399  0.1954 -1.2544  0.5867
 5832TP3      O17507   4.819   4.988   0.184 -0.0604  0.3149 -0.5609
 5832TP3     H117508   4.849   4.959   0.098  2.9818  2.6330 -0.4366
 5832TP3     H217509   4.860   4.927   0.245  0.1181  0.3761 -0.6197
 5833TP3      O17510   5.106   3.516   1.417 -0.4151 -0.0374  0.4188
 5833TP3     H117511   5.066   3.456   1.480 -0.2643  1.0056  1.5244
 5833TP3     H217512   5.033   3.547   1.363 -0.5487 -0.9000  0.0863
 5834TP3      O17513   3.517   5.475   1.463  0.4225 -0.4533  0.1981
 5834TP3     H117514   3.597   5.451   1.416 -0.3999 -0.6217 -1.1646
 5834TP3     H217515   3.508   5.569   1.450 -0.8788 -0.7887 -1.8119
 5835TP3      O17516   5.585   5.900   1.110 -0.3396 -0.1096  0.2481
 5835TP3     H117517   5.509   5.957   1.124 -0.5133 -0.2142 -0.2488
 5835TP3     H217518   5.615   5.922   1.022  0.0136 -0.2939  0.3228
 5836TP3      O17519   4.494   4.261   0.849  0.0835  0.2612  0.0060
 5836TP3     H117520   4.585   4.291   0.848  0.0754  0.3182  0.6887
 5836TP3     H217521   4.470   4.255   0.756  0.3330  1.5936 -0.1626
 5837TP3      O17522   4.949   3.613   1.802 -0.0809 -0.0637 -1.1941
 5837TP3     H117523   5.028   3.633   1.853 -1.5534  1.0567  0.7668
 5837TP3     H217524   4.957   3.519   1.783  0.8058 -0.4214  0.6618
 5838TP3      O17525   4.683   4.204   1.133 -0.0360 -0.1759  0.0547
 5838TP3     H117526   4.671   4.183   1.041  1.9365  0.5753 -0.4339
 5838TP3     H217527   4.739   4.134   1.166  0.1137  0.1070  0.4067
 5839TP3      O17528   3.731   3.331   2.125  0.4535 -0.2855 -0.2178
 5839TP3     H117529   3.678   3.331   2.045  1.9809  0.2471 -1.2869
 5839TP3     H217530   3.776   3.246   2.123  0.6407 -0.1905 -0.0332
 5840TP3      O17531   5.298   0.438   0.953 -0.2058  0.2727  0.2554
 5840TP3     H117532   5.308   0.527   0.919 -0.3963 -0.5612 -2.1890
 5840TP3     H217533   5.247   0.448   1.033 -0.3515  2.3294 -0.0479
 5841TP3      O17534   5.438   4.758   2.215 -0.6155  0.3295  0.5092
 5841TP3     H117535   5.508   4.781   2.277 -1.1839  1.2972  0.8274
 5841TP3     H217536   5.359   4.756   2.269 -0.9213 -0.1826  0.0519
 5842TP3      O17537   3.942   5.217   0.629 -0.3770  0.4538  0.0773
 5842TP3     H117538   4.023   5.268   0.623 -0.5353  0.6014 -0.9935
 5842TP3     H217539   3.872   5.282   0.620 -0.6120  0.2665  0.5267
 5843TP3      O17540   4.555   3.830   0.327 -0.3274 -0.4966  0.1086
 5843TP3     H117541   4.608   3.756   0.297 -1.2397 -0.4772 -1.6748
 5843TP3     H217542   4.524   3.803   0.414  2.0876 -0.7206  0.9683
 5844TP3      O17543   4.136   3.388   1.212 -0.0799 -0.5715  0.9100
 5844TP3     H117544   4.143   3.368   1.306 -1.4373  0.1091  1.1885
 5844TP3     H217545   4.058   3.443   1.206  0.9883  0.8759 -0.4088
 5845TP3      O17546   5.642   4.910   0.482  0.0323  0.5456 -0.3294
 5845TP3     H117547   5.636   4.879   0.572  0.8703  0.6605 -0.2193
 5845TP3     H217548   5.552   4.919   0.453 -0.2362 -0.0190  0.3166
 5846TP3      O17549   5.584   3.910   5.771  0.9171 -0.3366 -0.5324
 5846TP3     H117550   5.570   3.932   5.679  0.6708 -1.3188 -0.7434
 5846TP3     H217551   5.647   3.974   5.802  0.0610  0.7844 -1.0463
 5847TP3      O17552   3.945   3.566   1.285 -1.0948 -0.8707  0.0429
 5847TP3     H117553   3.951   3.634   1.353  0.2566 -1.9387  1.0475
 5847TP3     H217554   3.903   3.610   1.211  0.1583  1.2183  0.4881
 5848TP3      O17555   5.538   4.988   0.886  0.4523  0.6784  0.7643
 5848TP3     H117556   5.513   4.963   0.975 -0.3054  0.6506  0.5536
 5848TP3     H217557   5.460   5.030   0.850  0.9474  1.2302  0.3155
 5849TP3      O17558   4.233   4.644   0.813 -0.2889 -0.0646 -0.1808
 5849TP3     H117559   4.249   4.550   0.809 -1.2008 -0.3090  1.1474
 5849TP3     H217560   4.295   4.682   0.751 -0.0933 -1.5576 -0.9265
 5850TP3      O17561   4.985   5.163   0.712 -0.2666  0.7882 -0.1298
 5850TP3     H117562   4.890   5.175   0.711 -0.1481  1.7593 -0.4396
 5850TP3     H217563   5.020   5.249   0.694  0.7155  0.8777  1.8925
 5851TP3      O17564   4.755   3.658   1.180  0.1875  0.0973 -0.3148
 5851TP3     H117565   4.802   3.637   1.260  0.4131 -0.5514 -0.6177
 5851TP3     H217566   4.764   3.753   1.172  0.1379  0.1751  0.4406
 5852TP3      O17567   3.662   3.370   1.318 -0.0115 -0.1926 -0.0516
 5852TP3     H117568   3.732   3.305   1.317  0.9484  0.6458  3.0765
 5852TP3     H217569   3.687   3.432   1.249  0.6576 -1.4753 -1.0243
 5853TP3      O17570   3.513   4.227   1.351  0.0791  0.0985 -0.0688
 5853TP3     H117571   3.497   4.301   1.293  0.0203 -0.5144 -0.8634
 5853TP3     H217572   3.567   4.167   1.299 -1.0279 -1.0422  0.0474
 5854TP3      O17573   5.087   4.114   0.264 -0.1994 -0.4984  0.3221
 5854TP3     H117574   5.176   4.124   0.297 -0.7994 -0.1014  1.8697
 5854TP3     H217575   5.045   4.055   0.325 -1.0149 -0.6890 -0.3994
 5855TP3      O17576   5.177   3.920   0.639 -0.8333  0.1092 -0.5098
 5855TP3     H117577   5.113   3.851   0.623 -1.2158  0.0971  0.9475
 5855TP3     H217578   5.169   3.939   0.732  1.4936 -0.0800 -0.2117
 5856TP3      O17579   4.901   4.761   0.365 -0.6313  0.2065 -0.2965
 5856TP3     H117580   4.970   4.702   0.334 -0.5359  0.0453  0.2063
 5856TP3     H217581   4.947   4.824   0.421 -0.8511  0.2565 -0.1701
 5857TP3      O17582   0.213   4.392   0.634  0.6858 -0.3358  0.2784
 5857TP3     H117583   0.118   4.406   0.630  0.6460 -0.6939 -0.1283
 5857TP3     H217584   0.246   4.469   0.681  0.4252  0.9427 -1.5165
 5858TP3      O17585   0.110   4.439   0.275  0.3304 -0.0942 -0.4145
 5858TP3     H117586   0.028   4.390   0.276 -1.3254  2.4048 -2.1270
 5858TP3     H217587   0.116   4.475   0.187  1.6003  2.3803  0.5732
 5859TP3      O17588   2.855   4.612   0.545 -0.4188  0.5775  0.0099
 5859TP3     H117589   2.887   4.688   0.595  1.0319  0.6915 -1.0168
 5859TP3     H217590   2.760   4.623   0.542 -0.3901  1.3999  1.3846
 5860TP3      O17591   5.148   4.791   5.989  0.4022 -0.3795 -0.3678
 5860TP3     H117592   5.116   4.840   5.913 -0.3525 -2.4589 -1.4766
 5860TP3     H217593   5.141   4.853   6.062 -2.9059  0.4102 -1.1896
 5861TP3      O17594   4.595   5.083   5.549  0.1696 -0.0329 -0.2832
 5861TP3     H117595   4.680   5.056   5.515  0.1169 -1.3057  0.5222
 5861TP3     H217596   4.531   5.036   5.495 -0.0229  0.6959 -0.7025
 5862TP3      O17597   4.152   3.677   0.250  0.2301  0.3414 -0.5116
 5862TP3     H117598   4.137   3.682   0.345 -0.4542 -0.7823 -0.5316
 5862TP3     H217599   4.073   3.713   0.211  1.6293  3.4513 -0.7214
 5863TP3      O17600   5.605   4.770   0.711  0.5076 -0.2142  0.0325
 5863TP3     H117601   5.654   4.721   0.777  0.7059  2.3151  1.9152
 5863TP3     H217602   5.569   4.845   0.758  0.0462  1.3506 -2.5885
 5864TP3      O17603   5.030   5.792   0.839 -0.5738  0.2231 -0.0900
 5864TP3     H117604   4.943   5.755   0.824 -0.7290  1.2588 -2.1458
 5864TP3     H217605   5.022   5.883   0.810  1.7282 -0.2649 -2.6394
 5865TP3      O17606   5.259   5.349   1.574  0.0764  0.4471 -0.0392
 5865TP3     H117607   5.333   5.290   1.584 -0.5143 -0.2771  0.1738
 5865TP3     H217608   5.189   5.309   1.626 -0.4879  1.0722 -0.2948
 5866TP3      O17609   4.733   4.373   0.804  0.0492 -0.0584 -0.0277
 5866TP3     H117610   4.728   4.345   0.713 -0.4440  2.5424 -0.8835
 5866TP3     H217611   4.812   4.332   0.838  1.3371  0.4944 -2.2179
 5867TP3      O17612   5.445   4.921   0.120 -0.6005 -0.2913  0.3416
 5867TP3     H117613   5.391   4.998   0.108 -1.4167 -0.7992  0.6815
 5867TP3     H217614   5.535   4.954   0.122 -1.0257  0.8939  2.3836
 5868TP3      O17615   4.800   4.330   2.240  0.1474 -0.2321 -0.3259
 5868TP3     H117616   4.756   4.412   2.261  1.3339  0.5140 -0.6335
 5868TP3     H217617   4.767   4.307   2.153 -0.0278  0.0365 -0.3312
 5869TP3      O17618   4.144   4.709   1.469 -0.1037 -0.3165  0.6739
 5869TP3     H117619   4.145   4.736   1.561 -1.8652  1.6840  0.1787
 5869TP3     H217620   4.053   4.719   1.442  0.0713 -2.3136 -0.9369
 5870TP3      O17621   5.390   4.869   4.963  0.2173  0.5422  0.3360
 5870TP3     H117622   5.299   4.841   4.974  0.2050  1.3293  3.3009
 5870TP3     H217623   5.425   4.868   5.052  2.6507  1.8134 -0.5264
 5871TP3      O17624   3.606   4.354   0.584  0.2898 -0.4250 -0.6361
 5871TP3     H117625   3.579   4.436   0.544 -0.9190 -0.3584  0.2634
 5871TP3     H217626   3.669   4.317   0.522 -0.9648  0.0047 -2.2490
 5872TP3      O17627   4.221   2.767   1.123 -0.3812  0.3523 -0.6913
 5872TP3     H117628   4.278   2.692   1.138 -0.0232  0.3495 -1.9335
 5872TP3     H217629   4.173   2.745   1.043 -0.3535  1.3902 -1.0057
 5873TP3      O17630   3.918   4.205   1.179  0.1594 -0.2836  0.4902
 5873TP3     H117631   4.008   4.182   1.202  0.4221  0.2047  0.0011
 5873TP3     H217632   3.927   4.252   1.096 -0.1249  3.2014  2.2730
 5874TP3      O17633   2.972   5.473   0.949 -0.1895 -0.1382 -0.1396
 5874TP3     H117634   2.931   5.501   1.031  0.0295  2.3228 -0.8001
 5874TP3     H217635   3.065   5.463   0.972 -0.6221 -3.2883  0.7536
 5875TP3      O17636   2.995   4.875   1.100 -0.4332  0.4351 -0.1439
 5875TP3     H117637   2.916   4.828   1.126 -0.6045  0.9251  0.2301
 5875TP3     H217638   3.038   4.898   1.183  0.4922 -0.4697 -0.3412
 5876TP3      O17639   4.977   4.886   5.450 -0.0941  0.3528 -1.0108
 5876TP3     H117640   5.004   4.796   5.434 -0.6509 -0.2736  1.2430
 5876TP3     H217641   5.058   4.937   5.440  0.3418 -0.4603 -1.7104
 5877TP3      O17642   5.670   5.280   0.732 -0.0082 -0.0174  0.6840
 5877TP3     H117643   5.641   5.367   0.761  1.9322  1.3348 -1.0971
 5877TP3     H217644   5.742   5.258   0.791  0.1601  0.0860  0.5220
 5878TP3      O17645   5.788   4.569   0.179  0.3137 -0.6256  0.0838
 5878TP3     H117646   5.837   4.588   0.259  2.5233 -1.8267 -0.9107
 5878TP3     H217647   5.839   4.609   0.109  0.4985 -2.7718 -1.1003
 5879TP3      O17648   3.575   5.106   1.578  0.0297  0.1837  0.1132
 5879TP3     H117649   3.667   5.127   1.562 -0.1651  1.1474  0.1628
 5879TP3     H217650   3.576   5.016   1.609  0.7297 -0.6395 -2.1227
 5880TP3      O17651   4.889   4.385   2.500 -0.3050 -0.7775  0.5432
 5880TP3     H117652   4.897   4.344   2.414  0.0683  1.8937 -0.8076
 5880TP3     H217653   4.978   4.384   2.535  0.0637  0.3015 -0.2638
 5881TP3      O17654   4.925   3.855   1.506  0.2505 -0.5411 -0.2616
 5881TP3     H117655   4.873   3.910   1.448 -1.3850 -2.7748 -1.0407
 5881TP3     H217656   4.919   3.897   1.591  1.5716  2.0675 -1.3330
 5882TP3      O17657   4.156   3.705   2.258  0.4007 -0.4977 -0.0233
 5882TP3     H117658   4.201   3.642   2.315  0.6154  0.7518  1.2415
 5882TP3     H217659   4.225   3.743   2.205  0.4884 -0.2996  0.2307
 5883TP3      O17660   3.903   3.709   2.363  0.0984  0.0674  0.4318
 5883TP3     H117661   3.986   3.722   2.316  0.2565  0.4159  0.8015
 5883TP3     H217662   3.842   3.678   2.296  1.0442 -2.2335  0.5164
 5884TP3      O17663   4.597   4.234   1.512  0.7634  0.5777  0.6456
 5884TP3     H117664   4.660   4.286   1.462 -1.6276 -0.1286 -3.6063
 5884TP3     H217665   4.519   4.289   1.517  0.2421 -0.2227  1.8155
 5885TP3      O17666   5.277   3.291   1.379  0.2113 -0.4699 -0.1590
 5885TP3     H117667   5.252   3.379   1.352 -1.9177 -1.1104 -0.5020
 5885TP3     H217668   5.351   3.303   1.438  0.8349  1.4302 -1.2707
 5886TP3      O17669   5.516   4.640   0.097  0.1179  0.2206  0.8113
 5886TP3     H117670   5.523   4.735   0.105 -2.3546  0.5493 -0.1253
 5886TP3     H217671   5.607   4.610   0.100  0.9975  2.6107  0.8524
 5887TP3      O17672   4.393   3.686   0.880  0.7736  0.1809 -0.4919
 5887TP3     H117673   4.324   3.620   0.871 -0.3872  1.0978  1.2473
 5887TP3     H217674   4.445   3.657   0.955 -0.3049  1.6552  0.8848
 5888TP3      O17675   3.016   4.948   1.371  0.1649 -0.1807  0.1716
 5888TP3     H117676   3.108   4.957   1.398  0.2197  1.0821 -0.3691
 5888TP3     H217677   2.968   5.003   1.432  0.1120  1.4260 -1.2645
 5889TP3      O17678   4.362   4.652   1.053 -0.3274 -0.1974 -0.6051
 5889TP3     H117679   4.339   4.624   0.964  0.4816  0.2190 -0.9678
 5889TP3     H217680   4.314   4.594   1.110 -0.4668 -0.8131 -1.3283
 5890TP3      O17681   5.288   3.786   1.774 -0.1239  0.6967  0.2114
 5890TP3     H117682   5.321   3.875   1.790 -0.2280  0.8579 -0.4585
 5890TP3     H217683   5.256   3.788   1.684  2.1629 -0.7224 -0.7242
 5891TP3      O17684   3.994   4.791   0.858 -0.0261 -0.5070  0.0717
 5891TP3     H117685   4.053   4.719   0.833 -0.8615 -1.2345  0.1644
 5891TP3     H217686   3.972   4.775   0.949  0.4638  0.3639  0.3573
 5892TP3      O17687   5.360   4.218   0.233 -0.1487  0.4047 -0.5126
 5892TP3     H117688   5.339   4.166   0.155  0.5805 -2.5600  1.1246
 5892TP3     H217689   5.451   4.246   0.220 -0.5156  1.2585 -1.3636
 5893TP3      O17690   5.270   2.941   1.117  0.9775  0.4860 -0.1337
 5893TP3     H117691   5.195   2.922   1.174  1.1924  1.6109  0.5515
 5893TP3     H217692   5.320   2.859   1.115  0.3792  0.0941  0.3865
 5894TP3      O17693   4.314   5.095   0.735 -0.5342 -0.8947 -0.1627
 5894TP3     H117694   4.296   5.163   0.670  0.8940 -0.4017 -0.0619
 5894TP3     H217695   4.250   5.027   0.715 -1.7342  0.2804 -0.5306
 5895TP3      O17696   5.812   5.965   1.679  0.1001 -0.2890  0.1907
 5895TP3     H117697   5.779   5.991   1.593  0.1152  1.3319  0.6282
 5895TP3     H217698   5.873   6.035   1.703 -0.5903 -0.2242  1.8996
 5896TP3      O17699   4.130   4.633   1.828  0.3461 -0.2030 -0.2157
 5896TP3     H117700   4.052   4.672   1.867  0.7770 -0.4386  0.9291
 5896TP3     H217701   4.102   4.546   1.801  0.3940 -0.5693  0.8816
 5897TP3      O17702   5.063   3.911   5.664 -0.3675  0.5842  0.3499
 5897TP3     H117703   4.990   3.937   5.721 -1.3026  1.1918 -1.0859
 5897TP3     H217704   5.038   3.826   5.630  0.5339 -0.1222  1.3683
 5898TP3      O17705   4.332   4.565   0.158 -0.4586  0.0952  0.0348
 5898TP3     H117706   4.381   4.491   0.122 -0.6399  1.1794 -2.6775
 5898TP3     H217707   4.387   4.641   0.143 -1.4633  0.8796  0.1797
 5899TP3      O17708   5.284   5.142   0.087 -0.3787  0.4644  0.2579
 5899TP3     H117709   5.195   5.166   0.117 -0.2838 -0.2832  1.1824
 5899TP3     H217710   5.332   5.225   0.089 -0.9624  0.8196  0.0622
 5900TP3      O17711   4.282   3.885   1.603 -0.0944 -0.2230  0.8067
 5900TP3     H117712   4.231   3.901   1.523  0.8324 -0.9503  0.0346
 5900TP3     H217713   4.226   3.827   1.655  0.6698 -2.7794 -0.9657
 5901TP3      O17714   3.675   4.605   0.536 -0.2096  0.4377  0.1964
 5901TP3     H117715   3.765   4.592   0.509 -0.6035 -1.5714 -0.2956
 5901TP3     H217716   3.681   4.667   0.610  1.9971 -2.4005  2.6587
 5902TP3      O17717   4.942   3.791   2.257 -0.4471  0.1568  0.6514
 5902TP3     H117718   4.900   3.750   2.182 -1.1116 -0.0897  1.1389
 5902TP3     H217719   4.984   3.719   2.304  1.0898  0.4841 -0.1633
 5903TP3      O17720   5.035   4.449   1.634  0.3666  0.1405  0.3250
 5903TP3     H117721   5.121   4.407   1.634  0.1630 -0.3054  1.5202
 5903TP3     H217722   4.978   4.387   1.679 -0.2134  1.1410  1.0048
 5904TP3      O17723   3.021   5.363   0.672 -0.0265  0.6831 -0.2425
 5904TP3     H117724   2.991   5.396   0.587  2.8863  2.4052 -0.7365
 5904TP3     H217725   2.991   5.429   0.734 -1.4439 -0.1577  0.0085
 5905TP3      O17726   4.458   5.484   1.247 -0.0017  0.2081  0.0105
 5905TP3     H117727   4.444   5.409   1.305 -1.6535  0.0462 -0.5383
 5905TP3     H217728   4.378   5.537   1.257  0.8976  1.6272 -0.0230
 5906TP3      O17729   4.536   5.041   0.225 -0.6280 -0.0410  0.6192
 5906TP3     H117730   4.628   5.069   0.230 -0.0715 -1.6653  0.1619
 5906TP3     H217731   4.519   5.002   0.311 -1.0161  0.5826  0.8305
 5907TP3      O17732   3.702   4.959   0.781  0.5414  0.3983 -0.3175
 5907TP3     H117733   3.766   5.023   0.812  1.3927  0.0527 -1.2978
 5907TP3     H217734   3.705   4.966   0.685 -2.9938  2.4317 -0.4737
 5908TP3      O17735   4.384   4.436   2.026 -0.1223  0.2988  0.5744
 5908TP3     H117736   4.300   4.431   2.070 -0.0593  1.0164  0.7876
 5908TP3     H217737   4.389   4.526   1.993  0.5811  0.2914  0.6327
 5909TP3      O17738   5.734   5.346   1.117  0.2129 -0.3123  0.4911
 5909TP3     H117739   5.680   5.300   1.182 -0.4732  2.6440  2.2062
 5909TP3     H217740   5.686   5.427   1.099  1.9014  0.3527 -1.4433
 5910TP3      O17741   5.221   4.362   0.428  0.3648  0.1356  0.0384
 5910TP3     H117742   5.255   4.319   0.350  2.4898 -2.6977  2.2852
 5910TP3     H217743   5.269   4.446   0.432  2.4360 -0.9587 -0.2670
 5911TP3      O17744   0.079   4.537   0.036  0.5702  0.4509  0.1618
 5911TP3     H117745   0.072   4.632   0.037  0.2883  0.4334  0.7500
 5911TP3     H217746   0.096   4.514  -0.055  0.4682  1.0525 -0.0092
 5912TP3      O17747   4.012   5.744   1.098  0.2981 -0.8779  0.0708
 5912TP3     H117748   3.932   5.737   1.046 -0.6912 -1.4431  1.5852
 5912TP3     H217749   4.064   5.811   1.054 -0.8306 -0.7803 -1.1772
 5913TP3      O17750   4.711   3.996   1.401  0.1726  0.5616  0.2106
 5913TP3     H117751   4.654   3.963   1.331  0.0889 -0.8184  0.8956
 5913TP3     H217752   4.656   4.056   1.450 -0.4856 -0.1968  0.4279
 5914TP3      O17753   4.779   4.470   1.125  0.8740 -0.1642 -0.0025
 5914TP3     H117754   4.734   4.386   1.117 -1.5045  1.0775 -0.4572
 5914TP3     H217755   4.784   4.503   1.035 -1.1815  1.5802  0.4361
 5915TP3      O17756   4.698   3.900   0.778  0.2463 -0.3574 -0.7732
 5915TP3     H117757   4.629   3.872   0.718 -0.0863  0.4498 -0.7860
 5915TP3     H217758   4.743   3.971   0.732 -0.1887  0.4592  0.0176
 5916TP3      O17759   4.020   4.351   1.786 -0.2563 -0.5104 -0.1825
 5916TP3     H117760   4.031   4.339   1.880  1.8681  0.0223 -0.3093
 5916TP3     H217761   4.059   4.273   1.747 -0.4311 -0.3721 -0.6408
 5917TP3      O17762   4.653   4.533   1.374 -0.6425 -0.1159  0.6899
 5917TP3     H117763   4.559   4.532   1.354 -0.5913  0.6005  0.3859
 5917TP3     H217764   4.695   4.545   1.289 -0.3371  0.9695  0.9806
 5918TP3      O17765   5.816   4.691   0.863 -0.2932 -0.1987  0.3642
 5918TP3     H117766   5.871   4.615   0.846 -1.3918 -1.4730  2.1598
 5918TP3     H217767   5.871   4.766   0.840  1.6873 -1.4439  0.8119
 5919TP3      O17768   5.301   5.505   1.090 -0.0615  0.2375 -0.6770
 5919TP3     H117769   5.283   5.499   1.184 -0.0074  1.5251 -0.5743
 5919TP3     H217770   5.243   5.439   1.051 -1.0365  0.5826  0.1479
 5920TP3      O17771   4.986   3.542   0.961  0.8358  0.0482 -0.2194
 5920TP3     H117772   4.913   3.548   0.901  1.0931  0.2481 -0.5161
 5920TP3     H217773   4.946   3.535   1.048  0.4634  1.6527 -0.2362
 5921TP3      O17774   4.277   4.901   0.938  0.3229 -0.4691  0.1209
 5921TP3     H117775   4.212   4.870   0.875  0.3580 -0.6855  0.1891
 5921TP3     H217776   4.302   4.822   0.987 -1.5051  0.0903  2.1098
 5922TP3      O17777   3.649   5.091   1.968 -0.3285 -0.5206  0.1843
 5922TP3     H117778   3.671   5.025   1.903  1.0000 -0.9278  1.0124
 5922TP3     H217779   3.724   5.094   2.027 -0.4975  1.4906  0.3849
 5923TP3      O17780   4.643   3.349   5.800  0.8501  0.1684  0.3424
 5923TP3     H117781   4.647   3.255   5.821  0.3264  0.3747  1.4209
 5923TP3     H217782   4.553   3.363   5.770  0.9064  0.3326  0.2526
 5924TP3      O17783   4.879   3.372   1.546  0.2733  0.3085 -0.2315
 5924TP3     H117784   4.856   3.358   1.638  2.2908 -0.0726  0.2596
 5924TP3     H217785   4.947   3.307   1.528  1.2812  1.6393 -1.4319
 5925TP3      O17786   5.009   5.201   0.990  0.6841  0.2275  0.2268
 5925TP3     H117787   5.012   5.171   0.899  0.8026 -0.2482  0.3826
 5925TP3     H217788   4.941   5.269   0.991  0.0783 -0.3594 -0.0465
 5926TP3      O17789   3.592   5.735   1.646 -0.5640  0.2909  0.3441
 5926TP3     H117790   3.527   5.667   1.660 -1.7743  1.3793  0.1205
 5926TP3     H217791   3.545   5.806   1.603  0.4487  1.6433  1.3752
 5927TP3      O17792   5.001   4.513   1.314 -0.3884 -0.5306  0.2077
 5927TP3     H117793   4.964   4.514   1.226  0.5497 -2.2210 -0.2671
 5927TP3     H217794   4.960   4.586   1.359 -2.3070 -0.7546 -1.0693
 5928TP3      O17795   4.448   5.393   1.607 -0.3185 -0.3792 -0.0991
 5928TP3     H117796   4.423   5.336   1.535  2.6352 -1.1254 -0.6669
 5928TP3     H217797   4.513   5.453   1.570 -0.5146  0.8352  1.3898
 5929TP3      O17798   4.263   4.816   0.588  0.1058 -0.1219  0.1776
 5929TP3     H117799   4.191   4.878   0.594  1.1799  1.1252  0.5948
 5929TP3     H217800   4.252   4.774   0.503  0.4739  2.1148 -1.0613
 5930TP3      O17801   5.393   5.947   0.505 -0.2348  0.1743  0.2464
 5930TP3     H117802   5.399   6.042   0.499 -1.1066  0.2426  0.3432
 5930TP3     H217803   5.424   5.926   0.593  0.0454  0.3558  0.1921
 5931TP3      O17804   5.361   4.485   0.784 -0.2700  0.1295 -0.4284
 5931TP3     H117805   5.408   4.524   0.710 -0.8882  1.0539 -0.3585
 5931TP3     H217806   5.410   4.515   0.861 -2.4460  3.5421 -0.1336
 5932TP3      O17807   3.958   5.049   5.323 -0.3742 -0.0797  0.3092
 5932TP3     H117808   3.987   5.123   5.378 -0.2631 -0.1482  0.3432
 5932TP3     H217809   3.974   5.079   5.233 -0.3013 -0.0731  0.3237
 5933TP3      O17810   4.411   4.696   5.295  0.4603  0.4689  0.8232
 5933TP3     H117811   4.342   4.757   5.267 -0.4827 -0.5151  0.9474
 5933TP3     H217812   4.491   4.749   5.294 -0.0155  1.2117 -0.8952
 5934TP3      O17813   4.120   4.402   1.489 -0.4214 -0.8024 -0.0858
 5934TP3     H117814   4.098   4.434   1.576  1.7160  0.7413 -0.0291
 5934TP3     H217815   4.052   4.338   1.469  0.0316 -2.6501  3.4773
 5935TP3      O17816   4.629   4.713   0.377 -0.3801 -0.0921 -0.0357
 5935TP3     H117817   4.578   4.793   0.384  0.6644  0.6013 -0.1335
 5935TP3     H217818   4.718   4.743   0.357 -0.2949 -1.3315 -1.7398
 5936TP3      O17819   5.561   5.611   1.195 -0.3523 -0.2292 -0.1738
 5936TP3     H117820   5.583   5.701   1.173  0.4604 -0.2981  0.3254
 5936TP3     H217821   5.482   5.592   1.143 -1.2009  1.1327  0.5540
 5937TP3      O17822   4.781   5.143   2.643  0.0980 -0.4624  0.2353
 5937TP3     H117823   4.797   5.048   2.644 -0.7615 -0.7237 -2.2975
 5937TP3     H217824   4.850   5.177   2.586 -0.7447  0.1460 -0.4376
 5938TP3      O17825   5.253   4.077   1.781  0.1232 -0.3332  0.0994
 5938TP3     H117826   5.182   4.134   1.751  0.4440  0.2962  0.5063
 5938TP3     H217827   5.255   4.090   1.876  2.0561  1.2140 -0.0740
 5939TP3      O17828   5.086   5.528   5.551  0.1846 -0.8106  0.2246
 5939TP3     H117829   5.007   5.474   5.550 -0.0698 -0.4376 -0.0167
 5939TP3     H217830   5.144   5.484   5.613 -0.2997 -0.9616  0.5736
 5940TP3      O17831   5.279   4.241   1.277 -0.7828  0.4223  0.0497
 5940TP3     H117832   5.259   4.239   1.183  1.3983 -0.3690 -0.4444
 5940TP3     H217833   5.367   4.278   1.282 -1.5640  2.2455  1.9816
 5941TP3      O17834   4.432   5.462   5.970 -0.7261  0.6126 -0.7474
 5941TP3     H117835   4.490   5.478   5.895 -0.7031  0.5441 -0.7442
 5941TP3     H217836   4.344   5.473   5.935 -0.8361 -1.6725 -1.3584
 5942TP3      O17837   5.470   4.551   1.046 -0.2803  0.6006  0.1717
 5942TP3     H117838   5.476   4.460   1.074  0.1944  0.9504  1.2459
 5942TP3     H217839   5.389   4.583   1.087 -0.5859  0.5961 -0.4168
 5943TP3      O17840   3.262   4.860   0.260  0.7295 -0.2022 -0.1385
 5943TP3     H117841   3.324   4.787   0.258  2.1669  0.9794  0.0990
 5943TP3     H217842   3.182   4.822   0.296  1.7731 -1.4364  0.9746
 5944TP3      O17843   3.433   5.064   3.303 -0.2627 -0.3099 -0.5033
 5944TP3     H117844   3.452   5.145   3.256 -1.0221 -0.2106 -0.6540
 5944TP3     H217845   3.513   5.046   3.352 -0.9307  1.9248  1.5779
 5945TP3      O17846   5.155   3.132   1.741  0.1730  0.5435  0.3647
 5945TP3     H117847   5.251   3.123   1.740  0.0295 -1.3898  0.5656
 5945TP3     H217848   5.125   3.077   1.669 -0.8064  1.0340  0.3846
 5946TP3      O17849   4.046   4.959   0.632 -0.0483 -0.6901  0.2065
 5946TP3     H117850   3.994   4.930   0.707  0.0868  0.1682  0.6408
 5946TP3     H217851   4.031   5.054   0.627  0.4621 -0.6321 -0.4510
 5947TP3      O17852   4.246   4.358   0.834 -0.5824  0.2212  0.1982
 5947TP3     H117853   4.315   4.304   0.873  2.5112  2.4689 -1.6226
 5947TP3     H217854   4.241   4.327   0.743 -0.3568  1.4768 -0.2588
 5948TP3      O17855   4.269   4.799   5.897  0.1348 -0.0787 -0.5724
 5948TP3     H117856   4.227   4.845   5.824 -2.1876 -1.2977 -0.0943
 5948TP3     H217857   4.204   4.799   5.967  0.3082 -3.2677 -0.2342
 5949TP3      O17858   4.368   4.692   5.608 -0.4839 -0.6441 -0.0947
 5949TP3     H117859   4.397   4.662   5.694  0.3905 -0.9637 -0.4933
 5949TP3     H217860   4.416   4.638   5.546 -3.2454 -2.4677 -0.8128
 5950TP3      O17861   4.395   5.246   1.397  0.0605  0.0168 -0.2548
 5950TP3     H117862   4.320   5.220   1.343  0.2436 -0.0445 -0.4813
 5950TP3     H217863   4.435   5.164   1.423 -0.6205  0.0146  0.8247
 5951TP3      O17864   0.156   4.739   1.639 -0.0469  0.4129 -0.0121
 5951TP3     H117865   0.148   4.736   1.543  0.0525 -0.7273  0.0096
 5951TP3     H217866   0.240   4.783   1.654 -0.1894  0.8471 -0.4311
 5952TP3      O17867   3.890   3.832   1.446  0.2970  0.1893 -0.5762
 5952TP3     H117868   3.891   3.896   1.518  0.7665 -1.3873  0.8776
 5952TP3     H217869   3.972   3.849   1.399 -1.4666  3.4042 -2.8608
 5953TP3      O17870   4.428   4.684   1.910 -0.4947 -0.1726  0.9888
 5953TP3     H117871   4.447   4.775   1.930 -0.2399 -0.1543  0.6945
 5953TP3     H217872   4.488   4.663   1.838 -1.0964 -0.3427  0.5309
 5954TP3      O17873   3.864   5.401   0.953  0.9218 -0.3835 -0.2647
 5954TP3     H117874   3.858   5.494   0.976 -0.1213 -0.9881  2.2887
 5954TP3     H217875   3.797   5.389   0.886 -1.0225  0.2196  1.4603
 5955TP3      O17876   5.037   4.233   1.372 -0.3011  0.3478 -0.0659
 5955TP3     H117877   5.128   4.247   1.347  0.1598  0.0182  1.3509
 5955TP3     H217878   4.996   4.318   1.361  0.4402  0.7663  0.3480
 5956TP3      O17879   5.076   5.087   0.381 -0.1135 -0.3250 -0.1541
 5956TP3     H117880   5.143   5.036   0.426  1.3335  1.6315  0.0589
 5956TP3     H217881   5.057   5.160   0.440 -1.9448 -0.4465 -0.5283
 5957TP3      O17882   4.326   4.072   0.345 -0.4368  0.1784 -0.6909
 5957TP3     H117883   4.417   4.071   0.374 -0.4893  0.8080 -0.4896
 5957TP3     H217884   4.321   4.146   0.284 -0.9686  0.5913 -0.1634
 5958TP3      O17885   0.332   3.826   1.379 -0.1660 -0.2419  0.3414
 5958TP3     H117886   0.274   3.852   1.451 -1.3227 -1.2844 -0.1728
 5958TP3     H217887   0.400   3.774   1.421 -0.0918  0.2445  0.8407
 5959TP3      O17888   5.725   5.280   1.546 -1.0569  0.1234 -0.0289
 5959TP3     H117889   5.758   5.298   1.634 -0.7733  0.3240 -0.1759
 5959TP3     H217890   5.709   5.366   1.508  1.7773  0.2166 -1.2959
 5960TP3      O17891   4.303   5.907   5.435  0.7626 -0.1852 -0.0118
 5960TP3     H117892   4.316   5.996   5.467  0.5263 -0.3991  0.6863
 5960TP3     H217893   4.381   5.889   5.382 -0.5928  1.5967 -2.9045
 5961TP3      O17894   4.925   4.785   0.825  0.4484 -0.0235  0.1237
 5961TP3     H117895   4.933   4.705   0.772  0.0376  1.7454 -2.8184
 5961TP3     H217896   5.015   4.808   0.846  0.7802  0.1288 -1.3336
 5962TP3      O17897   4.985   4.755   1.448  0.1902 -0.2715 -0.0320
 5962TP3     H117898   4.953   4.840   1.416 -0.6401  0.1716  1.8435
 5962TP3     H217899   5.079   4.759   1.435 -0.1324 -0.3950 -2.9344
 5963TP3      O17900   4.471   4.792   0.073 -0.1660  0.0667 -0.3523
 5963TP3     H117901   4.411   4.803  -0.001 -3.0773 -0.5098  1.7615
 5963TP3     H217902   4.514   4.878   0.082 -2.1277  1.1575 -0.8157
 5964TP3      O17903   5.758   4.446   1.105  0.5638  0.3462  0.0226
 5964TP3     H117904   5.724   4.529   1.138 -1.3395 -0.0883 -0.6686
 5964TP3     H217905   5.711   4.380   1.156  0.1305 -0.2906 -1.1611
 5965TP3      O17906   4.224   5.616   1.216  0.1783  0.2898  0.6211
 5965TP3     H117907   4.138   5.608   1.258  0.1422 -0.5712  0.3947
 5965TP3     H217908   4.225   5.706   1.182 -0.6536  0.2977  0.5939
 5966TP3      O17909   4.679   4.278   0.543  0.0984  0.3868 -0.4322
 5966TP3     H117910   4.647   4.366   0.526  0.7507  0.4906 -1.2196
 5966TP3     H217911   4.678   4.235   0.457  1.1515  0.1039 -0.3264
 5967TP3      O17912   3.716   4.514   1.690 -0.3809 -0.2569  0.3322
 5967TP3     H117913   3.689   4.425   1.667 -1.9043  0.2333  0.1301
 5967TP3     H217914   3.749   4.552   1.609  0.5756 -0.7228  0.4884
 5968TP3      O17915   5.414   3.930   2.105 -0.0200  0.0564 -0.2474
 5968TP3     H117916   5.333   3.899   2.145  0.1161  0.2324  0.1662
 5968TP3     H217917   5.446   3.997   2.165  0.0404  0.5239 -0.7888
 5969TP3      O17918   4.850   3.326   1.211  0.2117 -0.0171 -0.1980
 5969TP3     H117919   4.910   3.265   1.254  1.8610  1.4006 -0.3237
 5969TP3     H217920   4.777   3.336   1.272  1.0225 -0.3770  0.8584
 5970TP3      O17921   0.174   4.708   1.360  0.0448  0.1339  0.0550
 5970TP3     H117922   0.258   4.675   1.329  0.6142  1.0586  0.5537
 5970TP3     H217923   0.109   4.650   1.321  0.9527 -1.1543  0.3787
 5971TP3      O17924   3.789   4.441   1.311 -0.2146 -0.6005 -0.1755
 5971TP3     H117925   3.852   4.388   1.263  0.3565 -0.5481  0.4875
 5971TP3     H217926   3.758   4.383   1.382 -0.7156 -0.5392 -0.3383
 5972TP3      O17927   4.177   5.148   0.366  0.3343  0.9946 -0.2514
 5972TP3     H117928   4.238   5.203   0.315 -1.0743  0.8350 -2.2246
 5972TP3     H217929   4.198   5.059   0.340 -0.5131  0.9193 -0.6901
 5973TP3      O17930   4.837   4.088   0.630 -0.4086 -0.4480  0.3166
 5973TP3     H117931   4.925   4.116   0.656 -0.5175 -0.3499  0.5853
 5973TP3     H217932   4.800   4.165   0.586  1.1456 -1.7181 -3.7114
 5974TP3      O17933   4.503   3.519   1.075  0.0696  0.2137 -0.3659
 5974TP3     H117934   4.471   3.429   1.084 -0.3296  0.4611  0.9120
 5974TP3     H217935   4.584   3.521   1.126 -1.7649  1.4273  2.8324
 5975TP3      O17936   4.465   4.326   0.239  0.1598 -0.2446 -0.5531
 5975TP3     H117937   4.443   4.365   0.324  1.6273  1.0091 -0.7138
 5975TP3     H217938   4.558   4.304   0.246 -0.3845 -2.9224 -0.8183
 5976TP3      O17939   5.176   5.095   1.819 -0.6844  0.0123 -0.0534
 5976TP3     H117940   5.261   5.051   1.814 -0.3829  0.7223 -2.0435
 5976TP3     H217941   5.194   5.177   1.865 -0.0265  0.6546 -1.4009
 5977TP3      O17942   5.605   4.315   5.797  0.3012 -0.0671  0.4313
 5977TP3     H117943   5.634   4.406   5.795 -0.0525  0.0273 -0.9262
 5977TP3     H217944   5.684   4.265   5.774  0.1468 -0.0128 -0.2142
 5978TP3      O17945   5.323   5.058   0.667 -0.6330  0.0683 -0.0742
 5978TP3     H117946   5.339   5.028   0.577  1.7468  0.7739  0.0285
 5978TP3     H217947   5.322   5.153   0.661  2.6976  0.2966  0.9532
 5979TP3      O17948   5.241   3.971   1.165  0.1708 -0.0912 -0.0206
 5979TP3     H117949   5.214   3.884   1.195  2.1591 -0.5233  0.6513
 5979TP3     H217950   5.177   4.030   1.204  0.5761 -0.9780  2.1451
 5980TP3      O17951   4.173   4.701   0.371 -0.0217 -0.0880 -0.1989
 5980TP3     H117952   4.200   4.637   0.305  1.0483  0.4444 -0.2986
 5980TP3     H217953   4.078   4.692   0.375 -0.1333 -0.0344 -1.9281
 5981TP3      O17954   4.218   5.300   0.580  0.0464  0.2139 -0.3812
 5981TP3     H117955   4.206   5.225   0.521  0.1491 -0.6135  0.6375
 5981TP3     H217956   4.153   5.364   0.550  0.1725 -0.1398 -1.4641
 5982TP3      O17957   4.420   4.148   2.254 -0.2529 -0.1464  0.2796
 5982TP3     H117958   4.451   4.109   2.172 -0.5603 -1.1929  0.6412
 5982TP3     H217959   4.497   4.150   2.310  0.2306  1.6316 -0.3953
 5983TP3      O17960   4.192   4.400   3.625  0.1549 -0.3898  0.1530
 5983TP3     H117961   4.110   4.435   3.659  0.8902 -0.6497  2.3698
 5983TP3     H217962   4.243   4.477   3.602  0.1634 -0.1359  0.9976
 5984TP3      O17963   4.312   4.932   2.903 -0.2714  0.4436  0.1350
 5984TP3     H117964   4.385   4.946   2.843  0.9432  0.1037  1.4905
 5984TP3     H217965   4.334   4.851   2.949 -0.7347  1.1662  1.6687
 5985TP3      O17966   4.723   5.325   3.196  0.3276 -0.2478 -0.2846
 5985TP3     H117967   4.723   5.231   3.212 -0.7161 -0.2859 -0.4715
 5985TP3     H217968   4.632   5.352   3.209  0.4374  0.5840 -1.1235
 5986TP3      O17969   4.226   4.293   2.388 -0.2358  0.2390 -0.3112
 5986TP3     H117970   4.274   4.290   2.471 -0.9956  0.8034  0.1679
 5986TP3     H217971   4.283   4.248   2.326  1.5592  2.0607 -0.0960
 5987TP3      O17972   4.717   4.536   2.678 -0.1653 -0.3936  0.0560
 5987TP3     H117973   4.758   4.484   2.609 -1.6488  0.6523 -1.6920
 5987TP3     H217974   4.628   4.552   2.647  0.2486  3.3281  0.3494
 5988TP3      O17975   5.572   3.977   2.605 -0.2052  0.0704 -0.2434
 5988TP3     H117976   5.564   3.919   2.681  0.8877 -1.7887 -1.4518
 5988TP3     H217977   5.522   3.933   2.536  0.6651  0.5481 -1.2088
 5989TP3      O17978   4.165   3.833   3.375 -0.3812  0.6988 -0.1982
 5989TP3     H117979   4.245   3.874   3.408 -1.5177  1.3163  1.9182
 5989TP3     H217980   4.186   3.812   3.283  2.1240  0.9808  0.2244
 5990TP3      O17981   4.536   5.162   3.911  0.1155 -0.1545  0.4215
 5990TP3     H117982   4.539   5.237   3.851  0.1683 -1.6880 -1.5711
 5990TP3     H217983   4.622   5.163   3.955  0.0910  0.9608  0.4732
 5991TP3      O17984   5.264   4.509   2.313  0.6631  0.2459  0.3138
 5991TP3     H117985   5.221   4.585   2.352  1.3573  0.5849  0.4344
 5991TP3     H217986   5.246   4.516   2.219 -0.3665 -0.1547  0.4723
 5992TP3      O17987   4.459   4.997   3.696  0.4663 -0.0639  0.0806
 5992TP3     H117988   4.387   4.937   3.717 -1.0543  1.3224 -0.9569
 5992TP3     H217989   4.456   5.064   3.764  1.6088 -0.6499  0.7419
 5993TP3      O17990   3.037   4.943   3.920  0.1957 -0.4326 -0.9695
 5993TP3     H117991   3.112   4.921   3.976  0.7301  4.0297  0.4261
 5993TP3     H217992   2.961   4.919   3.973  0.7057  1.1707  0.5930
 5994TP3      O17993   5.168   4.948   2.677 -0.3327 -0.3387  0.0169
 5994TP3     H117994   5.139   4.993   2.756 -3.1692 -1.8367 -0.0482
 5994TP3     H217995   5.113   4.984   2.608 -0.9446 -2.1098 -0.4545
 5995TP3      O17996   3.999   4.104   3.278  0.6267 -0.2617 -0.0227
 5995TP3     H117997   4.052   4.029   3.306  0.5827 -1.1098 -2.0771
 5995TP3     H217998   3.910   4.070   3.273 -0.0855  0.9560  2.6327
 5996TP3      O17999   5.442   4.263   2.046  0.4223 -0.1805  0.0613
 5996TP3     H118000   5.463   4.323   1.974 -1.0676 -0.5418 -0.7065
 5996TP3     H218001   5.511   4.197   2.042 -0.0034 -0.5709 -1.4870
 5997TP3      O18002   4.710   4.259   1.992 -0.2016  0.4430 -0.3642
 5997TP3     H118003   4.637   4.196   1.988  0.1250  0.0558 -0.2903
 5997TP3     H218004   4.689   4.324   1.925 -0.3115 -0.0029 -0.7754
 5998TP3      O18005   4.622   5.374   2.521  0.0107  0.0777 -0.8516
 5998TP3     H118006   4.535   5.379   2.560 -0.9779  1.8254 -3.1084
 5998TP3     H218007   4.661   5.296   2.561 -1.3828  0.9183  2.4915
 5999TP3      O18008   3.890   5.230   2.450 -0.5271 -0.1895  0.0317
 5999TP3     H118009   3.898   5.163   2.518  3.2056 -0.8515 -0.8390
 5999TP3     H218010   3.857   5.307   2.496 -3.5263 -2.1114  1.3601
 6000TP3      O18011   3.671   4.599   3.601  0.0735 -0.4186 -0.5899
 6000TP3     H118012   3.583   4.596   3.563 -0.4796  1.9086  0.3096
 6000TP3     H218013   3.667   4.669   3.666  1.8469 -2.1207  1.5405
 6001TP3      O18014   4.152   0.227   2.557 -0.1174  0.0456  0.0796
 6001TP3     H118015   4.185   0.137   2.560 -0.5001 -0.1378 -0.7666
 6001TP3     H218016   4.077   0.223   2.498 -0.4815  0.8208  0.4701
 6002TP3      O18017   3.848   4.828   2.538 -0.5893 -0.2265  0.7240
 6002TP3     H118018   3.845   4.739   2.572 -0.2968  0.3723  2.4037
 6002TP3     H218019   3.808   4.882   2.607 -1.6531  0.8537 -0.6472
 6003TP3      O18020   4.800   3.038   3.337 -0.2528 -0.1461 -0.5280
 6003TP3     H118021   4.828   2.987   3.260 -1.2047 -1.3632 -0.1097
 6003TP3     H218022   4.851   3.001   3.409  1.0491  1.3683 -0.6188
 6004TP3      O18023   4.653   4.194   2.455 -0.2988 -0.1988  0.1230
 6004TP3     H118024   4.690   4.122   2.507  0.6398 -0.6118 -1.0623
 6004TP3     H218025   4.719   4.210   2.387 -1.7427 -0.0747 -1.2959
 6005TP3      O18026   5.714   4.866   2.129 -0.3312  0.4677 -0.4299
 6005TP3     H118027   5.792   4.812   2.136 -0.7773 -0.0544  0.9174
 6005TP3     H218028   5.641   4.804   2.125 -0.9001  0.8696  1.8265
 6006TP3      O18029   3.568   4.502   2.136 -0.8287  0.0730  0.2861
 6006TP3     H118030   3.579   4.570   2.070 -1.6273  0.2643  0.3421
 6006TP3     H218031   3.496   4.533   2.191 -2.2790 -1.5051 -0.6185
 6007TP3      O18032   5.378   4.487   2.800 -0.2849  0.1154  0.3124
 6007TP3     H118033   5.416   4.494   2.887  1.7359  0.1445 -0.5111
 6007TP3     H218034   5.311   4.555   2.797 -0.3196  0.1738  1.7951
 6008TP3      O18035   4.857   5.397   1.240  0.0133 -0.4405  0.0551
 6008TP3     H118036   4.864   5.490   1.219  0.5698 -0.3400  0.6578
 6008TP3     H218037   4.804   5.361   1.169 -0.4303  0.3799 -0.0549
 6009TP3      O18038   3.823   4.949   3.660 -0.0525  0.6013  0.1028
 6009TP3     H118039   3.825   5.044   3.649  0.1491  0.7701  1.4322
 6009TP3     H218040   3.896   4.916   3.607 -0.8138  1.0671 -1.2769
 6010TP3      O18041   4.659   4.927   3.087  0.0767 -0.0408  0.1511
 6010TP3     H118042   4.750   4.952   3.071 -0.3451  0.8491 -1.0108
 6010TP3     H218043   4.647   4.848   3.034 -0.7272  1.7344 -2.5132
 6011TP3      O18044   4.778   4.741   2.849 -0.2547 -0.1786 -0.2099
 6011TP3     H118045   4.805   4.699   2.930  2.0940  0.8778 -0.3652
 6011TP3     H218046   4.753   4.669   2.791  0.0461 -1.0789  0.7570
 6012TP3      O18047   4.009   4.087   2.606  0.2613  0.2668  0.1586
 6012TP3     H118048   3.964   4.081   2.690 -0.0164  0.4807  0.0249
 6012TP3     H218049   4.012   4.181   2.586  0.4401  0.2278 -0.0089
 6013TP3      O18050   4.105   5.126   3.083  0.0309 -0.0067  0.1464
 6013TP3     H118051   4.127   5.185   3.155 -0.5831 -1.7783  1.8500
 6013TP3     H218052   4.183   5.073   3.069 -0.8040 -1.6820  1.5793
 6014TP3      O18053   4.795   4.838   1.806  0.1951  0.3356  0.2347
 6014TP3     H118054   4.735   4.903   1.770 -2.2187 -0.8115  1.9307
 6014TP3     H218055   4.810   4.777   1.733  1.0174  1.7229 -0.8143
 6015TP3      O18056   4.536   5.047   4.151  0.1347 -0.3310 -0.2301
 6015TP3     H118057   4.538   5.135   4.187  1.7616 -0.3864 -0.0963
 6015TP3     H218058   4.522   5.059   4.058  0.1176  0.0544 -0.1794
 6016TP3      O18059   5.014   4.739   3.508  0.0603 -0.2906  0.2795
 6016TP3     H118060   5.068   4.689   3.447 -1.4129  0.2824 -1.5931
 6016TP3     H218061   4.957   4.673   3.549  0.3071 -0.5411  0.2235
 6017TP3      O18062   5.087   5.788   2.807 -0.5492  0.2638  0.2264
 6017TP3     H118063   5.050   5.874   2.788  0.6624  0.4928 -1.4082
 6017TP3     H218064   5.182   5.803   2.810 -0.3684 -0.8657  0.7722
 6018TP3      O18065   5.545   5.509   2.395  0.2025  0.3218  0.0192
 6018TP3     H118066   5.533   5.474   2.483 -0.4971 -0.0203 -0.2087
 6018TP3     H218067   5.634   5.543   2.395  0.8171 -1.2124  0.3235
 6019TP3      O18068   4.417   5.021   1.888  0.4136  0.0766  0.4401
 6019TP3     H118069   4.324   4.999   1.887  0.7779 -2.1354  3.1936
 6019TP3     H218070   4.424   5.095   1.949  0.4166  0.8854 -0.5038
 6020TP3      O18071   5.514   4.472   3.039 -0.5567 -0.0074  0.0156
 6020TP3     H118072   5.503   4.548   3.096  0.2036 -1.3376  2.0432
 6020TP3     H218073   5.478   4.399   3.089  1.3269 -1.4631 -0.6340
 6021TP3      O18074   4.751   5.493   2.838 -0.4138 -0.1289  0.5125
 6021TP3     H118075   4.752   5.542   2.920  0.4521 -0.6076  0.7945
 6021TP3     H218076   4.749   5.561   2.770 -1.6236  0.2661  0.9181
 6022TP3      O18077   4.381   4.096   4.241  0.2646 -0.3970 -0.5331
 6022TP3     H118078   4.355   4.109   4.149  2.9077  0.6416 -1.2063
 6022TP3     H218079   4.398   4.002   4.247 -0.4524 -0.5644 -0.9423
 6023TP3      O18080   5.612   4.090   3.277 -0.5108  0.4266  0.7350
 6023TP3     H118081   5.646   4.023   3.337  1.0491 -0.2066 -0.7690
 6023TP3     H218082   5.602   4.044   3.194 -1.2476  1.6310  0.1260
 6024TP3      O18083   5.081   4.955   3.673  0.1824 -0.3428 -0.1868
 6024TP3     H118084   5.048   4.881   3.623  0.1787 -0.5481  0.1153
 6024TP3     H218085   5.030   5.030   3.641 -0.1326 -0.5492 -0.1726
 6025TP3      O18086   5.046   3.915   3.191  0.8179  0.0413  0.5483
 6025TP3     H118087   5.036   3.821   3.177 -0.2746 -0.0223  1.5840
 6025TP3     H218088   4.959   3.952   3.175  1.0873  0.7949  0.7397
 6026TP3      O18089   5.381   5.367   2.223  0.1684  0.4334  0.1072
 6026TP3     H118090   5.444   5.412   2.280  0.6834  0.4566 -0.4785
 6026TP3     H218091   5.393   5.274   2.243  1.3012  0.3352 -0.9059
 6027TP3      O18092   4.354   4.332   3.100  0.0447  0.2780 -0.2756
 6027TP3     H118093   4.382   4.399   3.163  0.1532 -0.0618  0.0397
 6027TP3     H218094   4.272   4.298   3.137  0.1628  0.0066 -0.2618
 6028TP3      O18095   4.308   4.820   3.822  0.3568  0.0443 -0.1613
 6028TP3     H118096   4.333   4.831   3.914  1.4140  1.6852 -0.6218
 6028TP3     H218097   4.299   4.725   3.811  0.0067 -0.1653  1.6765
 6029TP3      O18098   4.455   3.564   2.022  0.0093 -0.2352 -0.2064
 6029TP3     H118099   4.492   3.574   2.110 -2.3537 -0.9739  0.9373
 6029TP3     H218100   4.532   3.561   1.965  1.6508 -0.4561  1.8766
 6030TP3      O18101   0.204   4.091   2.973 -0.0792 -0.0793 -0.4911
 6030TP3     H118102   0.125   4.082   2.919 -1.7034 -2.6922  1.9966
 6030TP3     H218103   0.223   4.184   2.973 -0.8570  0.2165 -4.2335
 6031TP3      O18104   4.694   3.969   2.661  0.1274 -0.1332  0.1607
 6031TP3     H118105   4.634   3.957   2.734 -0.1905 -2.3734 -0.3922
 6031TP3     H218106   4.774   3.925   2.688  0.7686  0.9098  0.0038
 6032TP3      O18107   4.119   3.445   2.559 -0.3708  0.8241 -0.0809
 6032TP3     H118108   4.138   3.364   2.605 -2.0269  1.7458  2.4367
 6032TP3     H218109   4.201   3.467   2.514  0.4342 -1.6375  0.0614
 6033TP3      O18110   4.035   5.232   1.861 -0.1476  0.2218 -0.3792
 6033TP3     H118111   4.103   5.242   1.928  0.7630 -1.1952 -1.0622
 6033TP3     H218112   3.991   5.150   1.883 -0.7364  0.4306 -0.7518
 6034TP3      O18113   4.491   5.185   3.115  0.4205 -0.6334 -0.4676
 6034TP3     H118114   4.477   5.206   3.023 -2.1530 -2.3143 -0.5623
 6034TP3     H218115   4.558   5.116   3.114  0.7951 -0.2608 -1.0328
 6035TP3      O18116   0.389   5.129   2.716  0.6890  0.1779 -0.5297
 6035TP3     H118117   0.458   5.118   2.782  0.0690 -1.5391 -0.1343
 6035TP3     H218118   0.334   5.052   2.725 -2.1763  2.1606  0.1649
 6036TP3      O18119   5.060   5.533   3.158  0.6338 -0.1040 -0.2901
 6036TP3     H118120   5.113   5.609   3.180  0.3832  0.3938 -1.3446
 6036TP3     H218121   4.969   5.563   3.167  0.5327 -0.3257 -0.5488
 6037TP3      O18122   4.100   4.410   2.080 -0.5940  0.2117 -0.1621
 6037TP3     H118123   4.099   4.496   2.123  0.1085 -0.2912  0.8951
 6037TP3     H218124   4.048   4.354   2.137 -1.1350 -0.0498 -0.9019
 6038TP3      O18125   4.181   4.866   2.210  0.4211  0.7771  0.0759
 6038TP3     H118126   4.161   4.873   2.304 -1.1431  1.2609 -0.2638
 6038TP3     H218127   4.112   4.810   2.175 -0.5619  2.6366 -1.1819
 6039TP3      O18128   3.865   5.174   3.922  0.5548  0.1245  0.1469
 6039TP3     H118129   3.912   5.210   3.847  1.4493 -0.0888  0.5899
 6039TP3     H218130   3.900   5.085   3.931 -0.4207 -0.2819  0.0821
 6040TP3      O18131   4.171   5.610   1.973 -0.3447 -0.2311  0.2517
 6040TP3     H118132   4.241   5.667   1.943  0.2823 -1.3908 -0.5848
 6040TP3     H218133   4.172   5.537   1.911 -3.1127  0.2932 -0.5217
 6041TP3      O18134   4.030   5.382   2.243  0.4975 -0.1958 -0.2852
 6041TP3     H118135   3.960   5.334   2.287  0.5416 -1.8027 -1.8318
 6041TP3     H218136   3.987   5.458   2.204 -0.4833 -1.2951 -1.4345
 6042TP3      O18137   5.534   4.366   1.414  1.3133 -0.2516  0.0299
 6042TP3     H118138   5.442   4.392   1.410  1.8432  1.5532 -2.0609
 6042TP3     H218139   5.575   4.433   1.468  1.1735 -2.0790  2.5667
 6043TP3      O18140   3.329   5.055   1.932  0.0039 -0.3498  0.0626
 6043TP3     H118141   3.401   5.063   1.994  0.8949 -0.7796 -0.8922
 6043TP3     H218142   3.339   5.132   1.875 -1.3108  0.5058  0.9248
 6044TP3      O18143   0.555   3.996   2.318 -0.0018  1.1096 -0.6956
 6044TP3     H118144   0.593   4.058   2.256  0.4679  0.9031 -0.6172
 6044TP3     H218145   0.622   3.987   2.386 -0.3717  1.0750 -0.3322
 6045TP3      O18146   3.059   4.519   3.151 -0.9162  0.1059 -0.0360
 6045TP3     H118147   2.969   4.493   3.168 -0.5497 -0.9560  0.3909
 6045TP3     H218148   3.061   4.613   3.167 -1.5666 -0.1342  1.6438
 6046TP3      O18149   4.734   5.906   2.287  0.0841 -0.2958  0.3776
 6046TP3     H118150   4.704   5.997   2.292  1.8922  0.3227  0.9182
 6046TP3     H218151   4.801   5.900   2.355 -2.6894 -3.1663  3.1914
 6047TP3      O18152   4.431   4.772   2.206 -0.0919 -0.1384  0.0238
 6047TP3     H118153   4.441   4.867   2.214 -0.5563 -0.1848  1.5799
 6047TP3     H218154   4.339   4.760   2.184  0.0268 -0.2169 -0.4269
 6048TP3      O18155   0.199   3.674   3.299 -1.1023  0.2274 -0.3743
 6048TP3     H118156   0.234   3.763   3.289 -0.3431  0.0069  0.1978
 6048TP3     H218157   0.232   3.626   3.224  1.2192 -0.3898  0.9472
 6049TP3      O18158   3.715   4.275   1.553  0.1352  0.2555 -0.2749
 6049TP3     H118159   3.662   4.219   1.496  2.3491  0.0229 -2.2591
 6049TP3     H218160   3.767   4.214   1.605 -1.2959  0.4832  1.5134
 6050TP3      O18161   4.077   4.255   4.165  0.8895 -0.9081 -0.2428
 6050TP3     H118162   4.082   4.349   4.147 -3.5432  0.3398  3.0982
 6050TP3     H218163   4.011   4.223   4.103  0.1664 -1.0666  0.5886
 6051TP3      O18164   5.005   5.829   3.071 -0.2515  0.7744 -0.2534
 6051TP3     H118165   4.918   5.791   3.083 -0.2387  0.9966  0.5884
 6051TP3     H218166   5.037   5.790   2.989 -0.1439 -1.1954  0.6718
 6052TP3      O18167   5.440   3.567   2.279  0.1386 -0.2717 -0.3757
 6052TP3     H118168   5.458   3.487   2.329 -1.6240 -1.2158 -1.1725
 6052TP3     H218169   5.422   3.536   2.190  0.1572  1.0924 -0.8755
 6053TP3      O18170   5.079   5.550   2.622 -0.8259 -0.3200  0.4037
 6053TP3     H118171   5.143   5.574   2.554 -0.6058 -1.6297  0.1298
 6053TP3     H218172   5.079   5.625   2.681 -0.3566  0.4652 -0.5541
 6054TP3      O18173   5.175   4.882   1.258  0.3044  0.0612 -0.6537
 6054TP3     H118174   5.204   4.929   1.336  1.4367  1.6902 -2.0034
 6054TP3     H218175   5.100   4.932   1.226  1.4184  0.9297 -2.0104
 6055TP3      O18176   4.332   3.561   2.459  0.3465 -0.0846  0.5374
 6055TP3     H118177   4.366   3.496   2.397 -0.0521 -0.1184  0.3548
 6055TP3     H218178   4.411   3.600   2.497  0.5933 -0.8771  0.8624
 6056TP3      O18179   4.852   5.016   1.449  0.4863 -0.2357  0.6155
 6056TP3     H118180   4.811   4.990   1.531  2.6142  0.0599  1.8443
 6056TP3     H218181   4.783   5.007   1.384 -2.5080  3.1308  2.9487
 6057TP3      O18182   4.451   3.269   1.858  0.2013  0.1103  0.1968
 6057TP3     H118183   4.404   3.352   1.849 -3.2490 -1.6063  0.5496
 6057TP3     H218184   4.462   3.238   1.768 -0.1685  0.1338  0.1405
 6058TP3      O18185   4.594   3.820   2.114 -0.5069  0.2171  0.4668
 6058TP3     H118186   4.607   3.827   2.208 -2.4683  0.5696  0.7523
 6058TP3     H218187   4.673   3.777   2.082  0.6294  0.9742  2.1231
 6059TP3      O18188   5.162   3.996   3.417  0.5352 -0.3369  0.0544
 6059TP3     H118189   5.104   3.976   3.343 -2.0903 -1.2625  2.2185
 6059TP3     H218190   5.214   3.916   3.429  2.1401  0.3554 -1.6323
 6060TP3      O18191   5.010   4.282   1.983  0.2564 -0.4229  0.1148
 6060TP3     H118192   4.984   4.346   2.049  0.1399 -2.9695  2.7514
 6060TP3     H218193   4.928   4.241   1.956  0.4580 -0.4227 -0.5138
 6061TP3      O18194   4.130   4.891   2.465  0.2687 -0.5796 -0.4061
 6061TP3     H118195   4.043   4.858   2.485  0.6311 -1.5973 -0.4651
 6061TP3     H218196   4.190   4.833   2.512  0.9674 -0.5785 -1.2623
 6062TP3      O18197   5.012   5.268   2.499  0.2796  0.1355 -0.3115
 6062TP3     H118198   5.026   5.348   2.549 -1.7689  0.7016 -0.5389
 6062TP3     H218199   5.045   5.289   2.411  0.6782  0.3743 -0.1049
 6063TP3      O18200   5.479   5.486   2.656 -0.0809 -0.2877  0.1684
 6063TP3     H118201   5.390   5.452   2.664  0.5854 -2.3685 -0.6740
 6063TP3     H218202   5.528   5.443   2.726  0.8881 -1.5197 -1.2159
 6064TP3      O18203   3.260   4.019   3.533 -0.3206  0.6476 -0.4473
 6064TP3     H118204   3.177   4.059   3.508 -0.5124 -1.3335 -3.5787
 6064TP3     H218205   3.320   4.042   3.463  1.3218  0.6120  0.8854
 6065TP3      O18206   4.651   3.467   2.951 -0.3131 -0.8863  0.1488
 6065TP3     H118207   4.696   3.437   3.030  1.9099 -1.7852 -1.3705
 6065TP3     H218208   4.625   3.387   2.906 -0.3309 -0.4253 -0.6871
 6066TP3      O18209   4.801   4.473   3.385 -0.1778 -0.2913  0.3299
 6066TP3     H118210   4.775   4.565   3.376 -0.9066 -0.6779 -2.4241
 6066TP3     H218211   4.871   4.461   3.321 -0.0483 -1.6617  0.6912
 6067TP3      O18212   5.203   3.908   2.282 -0.4473  0.9363 -0.1143
 6067TP3     H118213   5.199   4.002   2.264 -3.5684  1.7606  3.4185
 6067TP3     H218214   5.113   3.885   2.305  0.6583 -2.3552  1.5800
 6068TP3      O18215   4.534   4.856   2.759 -0.5120  0.1181 -0.2046
 6068TP3     H118216   4.549   4.872   2.666  0.3035 -0.6861 -0.2192
 6068TP3     H218217   4.622   4.854   2.797 -0.8082 -0.2817  0.4640
 6069TP3      O18218   4.297   5.106   2.484  0.1840  0.3880 -0.1453
 6069TP3     H118219   4.235   5.170   2.449  2.2079 -0.3200 -6.0640
 6069TP3     H218220   4.255   5.021   2.470  0.4948  0.0945  0.6418
 6070TP3      O18221   5.306   4.724   1.618 -0.2940 -0.2205 -0.5591
 6070TP3     H118222   5.371   4.780   1.661  1.4617 -2.1184 -0.5707
 6070TP3     H218223   5.239   4.710   1.683  0.8837 -0.7133  0.5935
 6071TP3      O18224   3.450   4.927   2.442 -0.5933  0.0754 -0.2531
 6071TP3     H118225   3.356   4.934   2.458 -0.3766  1.0296  0.8399
 6071TP3     H218226   3.474   4.842   2.477 -0.7667  0.6090  1.2499
 6072TP3      O18227   5.248   5.132   2.195  0.6258 -0.3230 -0.5326
 6072TP3     H118228   5.186   5.111   2.264  1.8645  1.9188  1.4057
 6072TP3     H218229   5.208   5.206   2.149  1.4687  0.6708  0.2779
 6073TP3      O18230   5.656   4.093   2.012  0.7769  0.4073  0.5940
 6073TP3     H118231   5.593   4.023   2.025  0.9812  0.4902  2.2445
 6073TP3     H218232   5.740   4.055   2.039  1.6388  0.0497 -2.2555
 6074TP3      O18233   4.272   4.096   2.863 -0.2802  0.3619 -0.5939
 6074TP3     H118234   4.324   4.168   2.828  0.6641  0.2577  0.5101
 6074TP3     H218235   4.237   4.130   2.946  0.1124 -0.3995 -0.0959
 6075TP3      O18236   5.314   5.509   3.869 -0.5325  0.2809 -0.0192
 6075TP3     H118237   5.345   5.508   3.778  0.6200  0.6208  0.3471
 6075TP3     H218238   5.305   5.416   3.892 -0.4864  0.1885 -0.3698
 6076TP3      O18239   5.294   4.965   3.293  0.0270 -0.0847  0.2530
 6076TP3     H118240   5.248   5.019   3.357 -0.2642 -0.7720  0.6348
 6076TP3     H218241   5.316   5.025   3.222  0.1893  0.6488  0.9122
 6077TP3      O18242   5.712   5.626   3.720 -0.0033 -0.4334  0.1254
 6077TP3     H118243   5.729   5.554   3.659  0.8717  1.2147 -1.6673
 6077TP3     H218244   5.766   5.606   3.796  0.6806 -1.3781 -0.5845
 6078TP3      O18245   4.614   3.824   3.917  0.5552  0.3140  0.0741
 6078TP3     H118246   4.547   3.798   3.853  0.9465 -3.2955  0.9252
 6078TP3     H218247   4.682   3.866   3.864  0.2708 -1.3564 -1.7510
 6079TP3      O18248   4.877   4.665   3.116 -0.5446 -0.0240  0.5285
 6079TP3     H118249   4.887   4.572   3.139  1.2772 -0.3988 -1.5090
 6079TP3     H218250   4.966   4.700   3.116 -0.6841  0.6301 -2.7663
 6080TP3      O18251   4.558   2.878   3.099  0.3365  0.4226  0.4464
 6080TP3     H118252   4.550   2.957   3.044  0.7123 -0.2798 -0.6457
 6080TP3     H218253   4.538   2.806   3.039 -1.2470 -0.2564  1.7303
 6081TP3      O18254   4.639   4.679   3.646 -0.4951 -0.1139 -0.0544
 6081TP3     H118255   4.608   4.590   3.629 -1.2751  0.0072  0.6513
 6081TP3     H218256   4.643   4.720   3.559 -2.9595  0.0455 -0.1782
 6082TP3      O18257   3.569   4.799   2.079 -0.4784  0.1317  0.7284
 6082TP3     H118258   3.497   4.857   2.103 -1.0418 -0.6822  1.0408
 6082TP3     H218259   3.629   4.802   2.154  0.1181  1.2723  0.2169
 6083TP3      O18260   4.499   4.853   3.458  0.4230  0.4568  0.1386
 6083TP3     H118261   4.431   4.861   3.391  1.6203  0.7383 -1.0807
 6083TP3     H218262   4.471   4.913   3.527  0.0265  1.4797 -0.8737
 6084TP3      O18263   4.992   4.470   2.860  0.8224 -0.0779 -0.0250
 6084TP3     H118264   5.041   4.551   2.874  0.7291 -0.0883  0.3720
 6084TP3     H218265   5.048   4.418   2.802  1.6182 -0.3917  1.0086
 6085TP3      O18266   4.101   4.634   3.236  0.6957  0.2067  0.0579
 6085TP3     H118267   4.080   4.543   3.255  1.8663 -0.0802  0.0436
 6085TP3     H218268   4.049   4.656   3.159  0.8389 -0.6128 -0.2722
 6086TP3      O18269   4.255   5.825   1.776  0.2007 -0.1561 -0.6491
 6086TP3     H118270   4.205   5.754   1.734  0.9407 -0.4950 -0.9666
 6086TP3     H218271   4.345   5.811   1.748  0.4010  0.7631 -0.4990
 6087TP3      O18272   4.395   4.062   3.176 -0.2175 -0.2288 -0.4939
 6087TP3     H118273   4.392   4.119   3.253  0.2251 -0.8839  0.0283
 6087TP3     H218274   4.385   4.121   3.101 -1.5015  0.3356  0.0899
 6088TP3      O18275   5.539   4.836   2.917 -0.2872  0.0719  0.1489
 6088TP3     H118276   5.601   4.805   2.851 -1.1037  1.1069 -1.1474
 6088TP3     H218277   5.534   4.764   2.980  1.0478 -0.6546 -0.5357
 6089TP3      O18278   4.353   5.305   2.725 -0.0051 -0.0213 -0.4844
 6089TP3     H118279   4.341   5.256   2.643  0.1086  0.8218 -1.0245
 6089TP3     H218280   4.426   5.261   2.768 -0.5623 -0.9547 -0.4558
 6090TP3      O18281   0.058   3.711   2.417  0.4639 -0.4939 -0.1429
 6090TP3     H118282  -0.002   3.782   2.394  1.0845  0.1494  0.2029
 6090TP3     H218283   0.035   3.688   2.507 -1.2691 -2.3083 -0.9850
 6091TP3      O18284   3.569   5.327   3.165  0.0300 -0.2716 -0.2249
 6091TP3     H118285   3.547   5.328   3.072  0.3629  0.7193 -0.3073
 6091TP3     H218286   3.659   5.293   3.168  0.6492  1.2678 -0.4382
 6092TP3      O18287   4.843   4.892   2.628 -0.1589 -0.2849 -0.2685
 6092TP3     H118288   4.836   4.832   2.554 -0.7501 -2.1725  1.2469
 6092TP3     H218289   4.836   4.836   2.706  1.4179  1.4863  1.2593
 6093TP3      O18290   4.887   4.599   3.716 -0.5261  0.3808 -0.2238
 6093TP3     H118291   4.874   4.525   3.776  0.7704 -1.7769 -2.4299
 6093TP3     H218292   4.800   4.638   3.707 -1.5013 -1.5344  0.2463
 6094TP3      O18293   5.028   3.127   3.526  0.0845 -0.1947  1.0128
 6094TP3     H118294   4.940   3.163   3.537 -0.4273 -0.9719 -0.2742
 6094TP3     H218295   5.021   3.036   3.556  1.0729  0.3741  3.1542
 6095TP3      O18296   3.414   3.419   3.863 -0.6087 -0.2211  0.3907
 6095TP3     H118297   3.389   3.510   3.873  0.9924  0.1686  1.2898
 6095TP3     H218298   3.492   3.421   3.808 -1.3214 -1.1873 -0.7035
 6096TP3      O18299   4.874   5.123   3.073  0.0661  0.5581 -0.0936
 6096TP3     H118300   4.930   5.093   3.002  2.3758  1.6391  1.1417
 6096TP3     H218301   4.860   5.216   3.056  1.0845  0.9595  1.0513
 6097TP3      O18302   5.644   3.984   2.281  0.2986 -0.1808  0.4520
 6097TP3     H118303   5.719   3.949   2.232  0.8584 -1.4125  2.1023
 6097TP3     H218304   5.585   3.910   2.292 -0.1899  0.2705  0.9642
 6098TP3      O18305   4.737   4.953   0.954 -0.0985  0.5750  0.2045
 6098TP3     H118306   4.689   4.976   0.874 -2.1435 -0.2170  1.1199
 6098TP3     H218307   4.810   4.899   0.924 -0.5701  0.6720 -1.1618
 6099TP3      O18308   3.803   4.201   2.910  0.6213  0.2352  0.3834
 6099TP3     H118309   3.784   4.188   3.003 -2.9069  1.4553 -0.0019
 6099TP3     H218310   3.768   4.124   2.867  1.1568  0.2189 -0.0288
 6100TP3      O18311   3.371   4.161   2.900  0.3310 -0.2245  0.4600
 6100TP3     H118312   3.361   4.158   2.995 -1.0987 -0.2722  0.3302
 6100TP3     H218313   3.391   4.071   2.874  1.6098 -0.0599  0.7698
 6101TP3      O18314   4.361   4.605   3.223  0.6414  0.0121  0.4555
 6101TP3     H118315   4.265   4.602   3.222  0.4906 -4.5945 -2.6894
 6101TP3     H218316   4.384   4.667   3.154 -0.0890  0.3660  0.5183
 6102TP3      O18317   4.628   5.654   3.925 -0.7189  0.4746 -0.4669
 6102TP3     H118318   4.717   5.680   3.902 -0.7583  0.3681 -0.7349
 6102TP3     H218319   4.591   5.732   3.967 -0.5554  0.5726 -0.5019
 6103TP3      O18320   3.342   3.508   2.630 -0.4060  0.1431  0.1382
 6103TP3     H118321   3.431   3.533   2.653  0.4098 -1.7828 -0.7422
 6103TP3     H218322   3.343   3.498   2.535 -0.8266 -2.3548  0.3349
 6104TP3      O18323   0.135   3.959   1.238 -0.3466  0.5057 -0.0567
 6104TP3     H118324   0.138   4.053   1.219 -1.0956  1.2965  3.1559
 6104TP3     H218325   0.220   3.941   1.279 -0.6760  0.0940  0.4504
 6105TP3      O18326   5.122   4.311   2.654  0.2367 -0.8001  0.4933
 6105TP3     H118327   5.097   4.219   2.663 -0.3733 -0.4514  3.0131
 6105TP3     H218328   5.217   4.308   2.638  0.1528 -1.8501  0.0567
 6106TP3      O18329   4.111  -0.014   2.965  0.3467 -0.4461  0.3701
 6106TP3     H118330   4.043   0.019   2.907 -0.6066 -0.5998  1.3865
 6106TP3     H218331   4.102   0.037   3.045  1.4029 -0.4980  0.5424
 6107TP3      O18332   5.766   3.691   3.826  0.1020 -0.0026  0.3838
 6107TP3     H118333   5.704   3.652   3.888  1.6088 -1.8112  0.8787
 6107TP3     H218334   5.728   3.775   3.803 -1.4756 -0.1265  2.2753
 6108TP3      O18335   4.093   4.550   4.129  0.8042 -0.0181 -0.7206
 6108TP3     H118336   4.017   4.608   4.127 -0.1119 -1.1512  0.2594
 6108TP3     H218337   4.137   4.570   4.211 -0.6240 -1.9858  0.6407
 6109TP3      O18338   4.602   3.623   2.615 -0.6642 -0.5220 -0.4490
 6109TP3     H118339   4.606   3.679   2.537 -1.6266 -0.9006 -0.7826
 6109TP3     H218340   4.691   3.590   2.625 -0.6970 -1.1107 -1.8717
 6110TP3      O18341   4.055   3.999   2.343 -0.1824 -0.1006  1.1176
 6110TP3     H118342   4.064   4.061   2.415 -0.1627  1.4416 -0.1588
 6110TP3     H218343   4.099   3.920   2.374  2.6046  1.5347  1.6362
 6111TP3      O18344   4.556   5.618   2.060  0.2012 -0.4366 -0.4248
 6111TP3     H118345   4.601   5.579   2.135  0.1229 -0.4405 -0.3799
 6111TP3     H218346   4.553   5.548   1.995 -1.5411 -1.1154  0.3018
 6112TP3      O18347   4.284   5.449   3.055  0.6407 -0.0714 -0.6327
 6112TP3     H118348   4.291   5.435   2.961  0.9275  0.6404 -0.7203
 6112TP3     H218349   4.211   5.511   3.065  0.2936 -0.5178 -0.3488
 6113TP3      O18350   4.365   4.424   1.744  0.7194 -0.1525  0.7536
 6113TP3     H118351   4.373   4.374   1.825 -4.5889 -0.8856  1.1715
 6113TP3     H218352   4.332   4.510   1.771 -0.4537 -0.1533 -0.5155
 6114TP3      O18353   4.817   4.229   3.492 -0.6395  0.5120  0.2357
 6114TP3     H118354   4.816   4.325   3.496  1.0735  0.6189 -0.7261
 6114TP3     H218355   4.822   4.209   3.398 -0.4556 -0.5014  0.4515
 6115TP3      O18356   4.788   3.789   3.414  0.7756  0.0094  0.1171
 6115TP3     H118357   4.719   3.843   3.376 -0.3918 -0.9662  0.8130
 6115TP3     H218358   4.847   3.770   3.340 -0.4841 -0.3588 -0.8182
 6116TP3      O18359   2.804   4.372   2.455  0.1233  0.1685 -0.1879
 6116TP3     H118360   2.730   4.369   2.395  0.6017  0.6933 -0.8212
 6116TP3     H218361   2.811   4.283   2.488 -1.7462  0.4371  1.0971
 6117TP3      O18362   3.641   5.426   2.275 -0.0588  0.4342  0.4271
 6117TP3     H118363   3.604   5.344   2.309 -0.0496  0.3786  0.3046
 6117TP3     H218364   3.652   5.409   2.181  1.6485 -0.0732  0.6822
 6118TP3      O18365   3.681   4.837   2.956 -0.3037 -0.3593  0.1533
 6118TP3     H118366   3.598   4.801   2.924  0.0913  0.0369 -1.3796
 6118TP3     H218367   3.681   4.817   3.050 -1.5915 -1.4055 -0.0428
 6119TP3      O18368   4.437   4.683   2.975 -0.5365  0.1549  0.3854
 6119TP3     H118369   4.448   4.589   2.959 -1.1542  0.4397 -2.2413
 6119TP3     H218370   4.479   4.725   2.900 -0.8379  1.9652  1.1734
 6120TP3      O18371   3.025   4.993   2.796 -0.3162 -0.0505  0.6909
 6120TP3     H118372   3.075   4.914   2.818  0.1737  0.5691  1.9476
 6120TP3     H218373   3.058   5.019   2.710 -0.4559 -1.1802  0.2762
 6121TP3      O18374   4.335   4.752   2.565  0.5368 -0.1722  0.5143
 6121TP3     H118375   4.359   4.794   2.647  0.8466 -1.6605  1.2185
 6121TP3     H218376   4.411   4.764   2.508  0.3044  0.8959  0.4072
 6122TP3      O18377   5.129   4.817   3.146  0.1680 -0.0935 -0.4204
 6122TP3     H118378   5.179   4.745   3.185 -2.5131 -1.9417 -0.1475
 6122TP3     H218379   5.181   4.895   3.165  1.9524 -1.6371  1.5154
 6123TP3      O18380   4.190   4.111   1.708 -0.2103 -0.2638 -0.7286
 6123TP3     H118381   4.215   4.099   1.800  1.3657  0.8698 -0.9634
 6123TP3     H218382   4.261   4.070   1.659 -0.9360 -0.6768 -1.4562
 6124TP3      O18383   5.367   5.048   3.041 -0.1571  0.2239 -0.0843
 6124TP3     H118384   5.410   4.995   2.974  1.2807  0.6864  0.4212
 6124TP3     H218385   5.440   5.090   3.087 -1.1620  0.7378  1.0746
 6125TP3      O18386   4.238   5.420   3.723  0.6166 -0.5944  0.1647
 6125TP3     H118387   4.211   5.467   3.644 -3.2893 -2.7190 -0.0212
 6125TP3     H218388   4.259   5.332   3.692 -0.5800 -1.3417  1.3727
 6126TP3      O18389   4.254   3.754   3.123  0.3078  0.4149 -0.5560
 6126TP3     H118390   4.276   3.735   3.032 -1.3152  0.2133 -0.9343
 6126TP3     H218391   4.324   3.713   3.174  0.8139 -0.1464 -1.6739
 6127TP3      O18392   3.797   0.203   3.606 -0.1189  0.2070  1.0218
 6127TP3     H118393   3.711   0.162   3.608  0.2303 -0.5404  0.8008
 6127TP3     H218394   3.830   0.193   3.696  0.7453 -1.6923  0.5292
 6128TP3      O18395   5.179   4.605   1.834  0.9376 -0.0507 -0.2455
 6128TP3     H118396   5.120   4.530   1.826  0.0319  0.8083 -2.1760
 6128TP3     H218397   5.137   4.663   1.898  2.7782 -2.0861  3.0998
 6129TP3      O18398   4.796   3.907   3.682 -0.0709  0.0319  0.3206
 6129TP3     H118399   4.770   3.848   3.611 -0.5200 -0.5886  0.9820
 6129TP3     H218400   4.869   3.957   3.646  0.3446 -0.9539 -0.2494
 6130TP3      O18401   4.949   4.398   3.130  0.3225  0.0462 -0.1206
 6130TP3     H118402   4.964   4.415   3.037  1.9497 -0.2765  0.0568
 6130TP3     H218403   5.022   4.342   3.157  1.6281  2.5448  2.0280
 6131TP3      O18404   4.516   5.026   2.291 -0.1300  0.4199  0.0193
 6131TP3     H118405   4.485   5.075   2.367 -0.2140  1.6733 -0.8092
 6131TP3     H218406   4.529   5.092   2.223 -0.3888 -0.7256 -1.1747
 6132TP3      O18407   5.282   0.057   2.443 -0.0113 -0.0937  0.0121
 6132TP3     H118408   5.358   0.046   2.386 -0.0116  0.0308 -0.0112
 6132TP3     H218409   5.225  -0.018   2.422 -0.1268  0.0874 -0.3263
 6133TP3      O18410   5.424   5.494   3.204  0.2329  0.1704  0.2887
 6133TP3     H118411   5.482   5.519   3.132 -1.7306  0.7939 -1.1724
 6133TP3     H218412   5.403   5.577   3.247 -2.3908  0.5165 -1.4856
 6134TP3      O18413   3.177   4.922   2.480  0.0559  0.3796 -0.2777
 6134TP3     H118414   3.124   4.849   2.449 -0.4086  0.4148  0.4289
 6134TP3     H218415   3.116   4.996   2.485  0.0764  0.3342  0.8807
 6135TP3      O18416   4.085   5.007   3.939  0.4089 -0.1948  0.3558
 6135TP3     H118417   4.117   5.088   3.979  0.4961 -0.9853  1.9903
 6135TP3     H218418   4.164   4.965   3.903  0.1624  1.1033 -1.8475
 6136TP3      O18419   5.482   3.566   2.912 -0.1357 -0.1472  0.1387
 6136TP3     H118420   5.553   3.558   2.976 -0.1360  0.6586  0.2504
 6136TP3     H218421   5.402   3.553   2.963 -0.1833  1.3367  0.4962
 6137TP3      O18422   4.101   5.631   1.514 -0.8151  0.2562 -0.4255
 6137TP3     H118423   4.138   5.574   1.581 -2.4369  0.0406  0.3401
 6137TP3     H218424   4.008   5.639   1.538 -1.3020  0.6981 -2.2891
 6138TP3      O18425   3.423   5.716   3.822  0.0465 -0.3664 -0.8517
 6138TP3     H118426   3.439   5.646   3.886 -0.7574 -1.2852 -1.6325
 6138TP3     H218427   3.442   5.676   3.737 -1.4687  0.0112 -1.4010
 6139TP3      O18428   4.345   5.221   3.595  0.5566  0.0136  0.4616
 6139TP3     H118429   4.360   5.239   3.502 -1.3973 -1.8754 -0.2932
 6139TP3     H218430   4.416   5.162   3.619 -0.5511 -1.9061 -0.7111
 6140TP3      O18431   3.847   4.712   3.428 -0.1304  0.0334 -0.3168
 6140TP3     H118432   3.795   4.666   3.493 -1.1241  1.8354  0.2420
 6140TP3     H218433   3.933   4.670   3.431  0.0574  0.4178  2.6134
 6141TP3      O18434   4.221   5.231   2.043 -0.1199  0.5397  0.2045
 6141TP3     H118435   4.279   5.199   2.112 -1.3981 -1.3657  0.4599
 6141TP3     H218436   4.169   5.300   2.085  0.5671  0.8861  0.5111
 6142TP3      O18437   0.158   5.678   3.777 -0.3568 -0.2856  0.1179
 6142TP3     H118438   0.129   5.751   3.722  1.5612  0.7810  0.4708
 6142TP3     H218439   0.118   5.695   3.862 -1.0429 -0.4293 -0.1627
 6143TP3      O18440   5.497   3.757   3.351 -0.1938 -0.4847 -0.2638
 6143TP3     H118441   5.555   3.757   3.428 -0.5902 -0.6134  0.0418
 6143TP3     H218442   5.409   3.749   3.388 -0.3063 -2.0617 -0.8002
 6144TP3      O18443   3.287   3.921   3.133  0.2388 -0.8654  0.1497
 6144TP3     H118444   3.195   3.907   3.158  0.5409 -0.8233  1.3228
 6144TP3     H218445   3.323   3.833   3.122  0.0300 -0.8808 -0.4410
 6145TP3      O18446   5.620   5.154   1.307 -0.4545 -0.0551  1.1431
 6145TP3     H118447   5.636   5.185   1.396 -1.8176  0.6060  1.1878
 6145TP3     H218448   5.703   5.115   1.280  0.3087  0.7004  2.3029
 6146TP3      O18449   4.542   4.429   3.632  0.2810 -0.5429 -0.0890
 6146TP3     H118450   4.557   4.341   3.666 -1.1389 -0.8838 -0.2824
 6146TP3     H218451   4.505   4.414   3.544  0.5764  0.2581 -0.3558
 6147TP3      O18452   4.517   5.425   1.868  0.1653 -0.4980 -0.1499
 6147TP3     H118453   4.499   5.426   1.774  1.2412 -2.3422 -0.4142
 6147TP3     H218454   4.612   5.415   1.875  0.0837 -0.6115  1.1389
 6148TP3      O18455   5.177   0.393   1.860 -0.7623  0.0761  0.5887
 6148TP3     H118456   5.176   0.375   1.954 -1.4787 -0.8068  0.4309
 6148TP3     H218457   5.263   0.432   1.843 -1.2635  1.8701  1.8892
 6149TP3      O18458   3.494   5.458   2.617 -0.1487 -0.2876  0.4864
 6149TP3     H118459   3.578   5.502   2.635  1.5352 -2.4926 -1.4462
 6149TP3     H218460   3.511   5.366   2.634 -2.2555 -0.7926  0.1251
 6150TP3      O18461   5.555   4.727   2.460 -0.2469 -0.2545  0.0592
 6150TP3     H118462   5.600   4.719   2.545  0.6461 -0.9143 -0.4653
 6150TP3     H218463   5.546   4.637   2.429  0.3202  0.0348 -0.9992
 6151TP3      O18464   5.037   5.002   2.439 -0.2627  0.3196  0.3972
 6151TP3     H118465   5.039   5.091   2.475 -0.2415  0.6105 -0.2968
 6151TP3     H218466   4.952   4.995   2.397 -0.1113  0.1491  0.1144
 6152TP3      O18467   4.634   2.761   2.379 -0.4680 -0.4861 -0.4831
 6152TP3     H118468   4.723   2.727   2.391 -0.5669 -1.0097 -1.1799
 6152TP3     H218469   4.583   2.685   2.353 -0.9770 -0.0441 -0.7858
 6153TP3      O18470   4.080   4.456   2.853 -0.0088  0.1412 -0.4495
 6153TP3     H118471   4.079   4.407   2.935  1.3121  0.1482 -0.4126
 6153TP3     H218472   3.988   4.476   2.837 -0.4207 -0.9430  0.3730
 6154TP3      O18473   5.158   4.189   3.148 -0.0807 -0.0533 -0.3007
 6154TP3     H118474   5.159   4.096   3.170 -0.4274  0.2257  0.9478
 6154TP3     H218475   5.233   4.225   3.195 -0.2146  0.3845 -0.4228
 6155TP3      O18476   3.794   4.490   2.402 -0.2300 -0.0136 -0.1219
 6155TP3     H118477   3.844   4.409   2.391  2.0329  1.3055 -0.2729
 6155TP3     H218478   3.783   4.498   2.497 -0.8846 -0.7067 -0.1275
 6156TP3      O18479   4.016   4.387   3.304 -0.1490 -0.4151  0.4792
 6156TP3     H118480   3.953   4.391   3.375 -2.2032 -0.7255 -1.2099
 6156TP3     H218481   4.032   4.293   3.292 -1.0181 -0.4787 -0.3903
 6157TP3      O18482   3.686   4.584   2.636 -0.3652  0.5697  0.3195
 6157TP3     H118483   3.605   4.632   2.656 -0.2028  0.3863  1.4992
 6157TP3     H218484   3.723   4.564   2.722  0.5029 -0.0905 -0.1995
 6158TP3      O18485   3.746   3.410   1.655  0.1709 -0.4947  0.4697
 6158TP3     H118486   3.776   3.336   1.602 -0.3753 -0.5470  0.2167
 6158TP3     H218487   3.755   3.485   1.597  0.7261 -0.3668  0.7273
 6159TP3      O18488   4.681   4.262   3.199 -0.9758  0.1738  0.1993
 6159TP3     H118489   4.749   4.315   3.157  1.4525 -3.1736 -0.4628
 6159TP3     H218490   4.628   4.326   3.246  3.8424  3.0154  2.5742
 6160TP3      O18491   4.053   3.290   1.917  0.1664 -0.1808 -0.3310
 6160TP3     H118492   3.969   3.281   1.963  0.3515 -2.2421 -0.2915
 6160TP3     H218493   4.102   3.212   1.943  2.6637  1.6450  0.7133
 6161TP3      O18494   4.542   5.220   2.091 -0.8477 -0.0808 -0.8220
 6161TP3     H118495   4.499   5.282   2.032  0.4281 -0.1518 -1.8690
 6161TP3     H218496   4.630   5.256   2.103 -0.8398 -0.4651  0.4720
 6162TP3      O18497   3.846   5.346   4.535 -0.3482  0.1432  0.1920
 6162TP3     H118498   3.882   5.268   4.493 -0.6231  1.1158 -1.9890
 6162TP3     H218499   3.879   5.419   4.483 -2.3410  1.3070  0.4502
 6163TP3      O18500   5.424   5.304   2.909  0.0753 -0.5447 -0.7488
 6163TP3     H118501   5.374   5.256   2.976 -0.1004  0.6389 -0.0155
 6163TP3     H218502   5.362   5.367   2.873 -0.3208 -2.2044 -3.2074
 6164TP3      O18503   3.864   4.427   3.558  0.1197  0.2314  0.3219
 6164TP3     H118504   3.916   4.467   3.628  0.2772 -2.2074  1.7185
 6164TP3     H218505   3.782   4.476   3.559  0.8021  1.4269  0.9346
 6165TP3      O18506   5.178   4.702   2.841  0.3805  0.3991  0.1226
 6165TP3     H118507   5.163   4.762   2.768  2.0498  1.1992  0.3898
 6165TP3     H218508   5.184   4.757   2.918  0.5414 -0.2520  0.5870
 6166TP3      O18509   4.130   5.628   3.200 -0.1424  0.4098  0.6943
 6166TP3     H118510   4.058   5.681   3.167 -0.6405  0.6538  2.0758
 6166TP3     H218511   4.203   5.690   3.208  1.2404 -0.3809 -3.4168
 6167TP3      O18512   4.288   4.241   3.371 -0.8153  0.7453 -0.6433
 6167TP3     H118513   4.365   4.292   3.394 -0.2889 -1.3683  3.1776
 6167TP3     H218514   4.217   4.281   3.421 -0.9614 -0.4691  0.1846
 6168TP3      O18515   3.969   4.717   2.113  0.1335  0.3027  0.3554
 6168TP3     H118516   3.912   4.688   2.042  0.7461 -0.4085  0.1496
 6168TP3     H218517   3.912   4.719   2.190  0.0458 -1.4534  0.3815
 6169TP3      O18518   3.750   4.757   2.277 -0.0395  0.2647  0.3227
 6169TP3     H118519   3.792   4.787   2.357  0.2613 -0.6315  0.5077
 6169TP3     H218520   3.744   4.662   2.286 -2.5732  0.3560  0.5519
 6170TP3      O18521   4.900   4.348   3.882 -0.1654  0.4063  0.3505
 6170TP3     H118522   4.911   4.266   3.929  0.1140  0.0146 -0.3741
 6170TP3     H218523   4.946   4.413   3.935 -0.6440  0.1515  1.0812
 6171TP3      O18524   5.990   4.550   2.612 -0.4085  0.1819  0.6767
 6171TP3     H118525   5.923   4.527   2.547  1.4659  0.8223 -1.6112
 6171TP3     H218526   5.963   4.504   2.691 -2.7594 -0.7335 -0.5677
 6172TP3      O18527   4.911   5.129   1.808  0.2339  0.8945  0.6266
 6172TP3     H118528   4.875   5.081   1.733 -0.6915  0.1545  1.5031
 6172TP3     H218529   5.005   5.125   1.796  0.1144  0.3656 -0.2501
 6173TP3      O18530   3.945   5.775   3.048 -0.0552 -0.4468 -0.2093
 6173TP3     H118531   3.969   5.867   3.034 -0.7479 -0.1614  0.4170
 6173TP3     H218532   3.961   5.733   2.963  0.8151  0.1188 -0.3439
 6174TP3      O18533   5.444   3.834   2.411  0.1451 -0.2193  0.9572
 6174TP3     H118534   5.349   3.833   2.396  0.2655  0.2496  0.1238
 6174TP3     H218535   5.471   3.744   2.394  0.0565 -0.0334 -0.2976
 6175TP3      O18536   5.038   4.856   1.951 -0.3444  0.2390 -0.8074
 6175TP3     H118537   4.952   4.888   1.925 -0.4733 -0.8925 -1.8433
 6175TP3     H218538   5.099   4.922   1.919 -0.8376  1.5893  0.8389
 6176TP3      O18539   5.114   5.123   2.911  0.5373 -0.0059  0.1162
 6176TP3     H118540   5.082   5.202   2.867 -1.9302  0.1552  2.0480
 6176TP3     H218541   5.165   5.156   2.985  0.9270 -0.2454 -0.0425
 6177TP3      O18542   3.749   4.990   2.736  0.2086 -0.4840 -0.2979
 6177TP3     H118543   3.713   4.958   2.819  0.2918 -0.8832 -0.4125
 6177TP3     H218544   3.838   5.016   2.758 -0.0519  0.2445 -0.0731
 6178TP3      O18545   3.300   4.851   2.142  0.0056  0.0510 -0.4184
 6178TP3     H118546   3.286   4.925   2.082 -0.7134  2.0156  1.9929
 6178TP3     H218547   3.213   4.833   2.178  0.2543 -1.7314 -0.6109
 6179TP3      O18548   4.269   5.904   3.475  1.0238 -0.4371  0.0372
 6179TP3     H118549   4.262   5.923   3.382 -3.4709  1.4442  0.5209
 6179TP3     H218550   4.305   5.984   3.513  0.5702 -0.2730  0.1290
 6180TP3      O18551   5.883   3.918   2.490  0.1162  0.0822 -0.2763
 6180TP3     H118552   5.797   3.959   2.501  1.1090  2.0097  0.7700
 6180TP3     H218553   5.938   3.988   2.453  1.3483 -0.9811 -0.5204
 6181TP3      O18554   4.522   4.340   2.878 -0.2634  0.6977  0.2954
 6181TP3     H118555   4.476   4.282   2.817  1.3650 -0.6892  0.3353
 6181TP3     H218556   4.500   4.306   2.964  1.2095 -0.3105  0.2998
 6182TP3      O18557   5.079   4.050   2.604 -0.6621  0.1970 -0.7908
 6182TP3     H118558   5.048   4.031   2.692 -1.3118 -0.1601 -1.0817
 6182TP3     H218559   5.103   3.964   2.568  0.5856  0.4549 -0.6137
 6183TP3      O18560   4.229   4.858   3.347  0.3343  0.6435 -0.6745
 6183TP3     H118561   4.161   4.895   3.402 -1.6087 -0.0013 -2.5017
 6183TP3     H218562   4.187   4.784   3.302  2.1540  0.3740 -2.0862
 6184TP3      O18563   5.296   5.623   2.475  0.2205 -0.0572 -0.0678
 6184TP3     H118564   5.364   5.568   2.513  1.3731  0.8029 -0.8099
 6184TP3     H218565   5.328   5.644   2.387  0.4552  2.7601  0.5787
 6185TP3      O18566   5.087   3.644   2.873 -0.1767 -0.6081  0.2253
 6185TP3     H118567   5.171   3.640   2.828  0.4358  0.3873  1.2244
 6185TP3     H218568   5.106   3.614   2.962 -0.8593 -0.3082  0.4834
 6186TP3      O18569   3.802   3.921   2.501 -0.1358 -0.2599  0.0455
 6186TP3     H118570   3.822   3.840   2.455 -1.4829 -0.4761 -0.2132
 6186TP3     H218571   3.874   3.980   2.479  0.6545 -1.2453 -0.0815
 6187TP3      O18572   4.154   4.887   1.945  0.2641  0.8529 -0.3314
 6187TP3     H118573   4.169   4.795   1.921  2.5441  1.6630 -2.5710
 6187TP3     H218574   4.171   4.891   2.039  1.0285 -0.8973 -0.3592
 6188TP3      O18575   4.582   5.403   3.756  0.2073  0.6323  0.5732
 6188TP3     H118576   4.491   5.412   3.726 -0.0390  0.2705  1.1999
 6188TP3     H218577   4.605   5.490   3.788 -0.2846  0.4542  1.4201
 6189TP3      O18578   5.267   2.716   1.774 -0.2421  0.2324 -0.0848
 6189TP3     H118579   5.332   2.646   1.778  0.8416  1.2898  1.6256
 6189TP3     H218580   5.259   2.748   1.863  0.8843  3.6839 -1.0550
 6190TP3      O18581   4.566   3.284   2.475 -0.2161  0.8343 -0.3159
 6190TP3     H118582   4.594   3.217   2.413 -1.1551  0.4236 -0.3281
 6190TP3     H218583   4.484   3.318   2.438 -0.5574  0.8876  0.4627
 6191TP3      O18584   5.563   3.818   2.842 -0.2238 -0.1271 -0.8566
 6191TP3     H118585   5.528   3.749   2.898  1.5203 -0.9068 -0.6656
 6191TP3     H218586   5.636   3.777   2.796 -0.6907  0.9141 -2.6310
 6192TP3      O18587   3.446   4.717   2.892  0.3587  0.3321 -0.3632
 6192TP3     H118588   3.401   4.648   2.940 -0.1936  0.6731 -0.3881
 6192TP3     H218589   3.419   4.706   2.801 -0.2275  0.9532 -0.2773
 6193TP3      O18590   4.954   5.445   1.675  0.5127 -0.1175  0.5381
 6193TP3     H118591   4.970   5.447   1.770  1.4611  1.1380  0.3767
 6193TP3     H218592   4.895   5.371   1.663  0.0159 -0.0364  2.1639
 6194TP3      O18593   3.866   4.219   4.516  0.4109 -0.0044  0.1255
 6194TP3     H118594   3.950   4.193   4.553  0.2437 -0.4007  0.2366
 6194TP3     H218595   3.886   4.296   4.462  0.7847  0.1034  0.4150
 6195TP3      O18596   5.210   5.024   5.524  0.1685 -0.2033  0.5699
 6195TP3     H118597   5.288   5.036   5.470 -1.0367  2.7153 -0.7047
 6195TP3     H218598   5.244   4.987   5.606  2.7460  0.0752 -0.2713
 6196TP3      O18599   4.411   4.656   4.431  0.0584  0.5255  0.0079
 6196TP3     H118600   4.315   4.650   4.436 -0.2428  3.6259  0.0238
 6196TP3     H218601   4.432   4.618   4.346 -0.9420 -1.7318  0.6947
 6197TP3      O18602   4.862   4.821   4.996  0.3927 -0.1016  0.2237
 6197TP3     H118603   4.821   4.808   4.910 -1.4665 -0.0266  1.0543
 6197TP3     H218604   4.841   4.742   5.045 -1.6737  1.2925  1.7434
 6198TP3      O18605   5.253   4.657   4.118 -0.3817  0.1041  0.0316
 6198TP3     H118606   5.245   4.641   4.212 -1.7471  1.8410  0.2668
 6198TP3     H218607   5.181   4.717   4.098  0.5356  0.6204 -1.9238
 6199TP3      O18608   4.688   4.229   3.750  0.4444 -0.1251 -0.0639
 6199TP3     H118609   4.748   4.264   3.816  1.1903  1.0885 -1.3343
 6199TP3     H218610   4.745   4.183   3.688 -0.0553  0.0531 -0.6660
 6200TP3      O18611   5.176   4.474   3.668  0.3765  0.4335  0.3061
 6200TP3     H118612   5.192   4.437   3.754  1.6447  0.3248  0.0357
 6200TP3     H218613   5.113   4.544   3.684 -0.5774 -0.5680  1.0868
 6201TP3      O18614   4.670   4.805   5.316  0.6234  0.5821  0.2149
 6201TP3     H118615   4.698   4.738   5.254 -1.0588 -0.7253  0.8056
 6201TP3     H218616   4.738   4.804   5.384  1.1861  0.2874 -0.3352
 6202TP3      O18617   3.632   5.073   0.173  0.0427  0.9842 -0.5339
 6202TP3     H118618   3.652   5.102   0.262 -2.6599 -1.3756  1.0147
 6202TP3     H218619   3.584   5.146   0.134 -1.6177  0.9031  1.2005
 6203TP3      O18620   3.495   4.056   3.702  0.0731  0.2799 -0.7507
 6203TP3     H118621   3.439   4.048   3.624 -0.0969  1.1975 -0.7323
 6203TP3     H218622   3.574   4.100   3.671 -0.2257  1.1546 -0.3100
 6204TP3      O18623   3.659   4.319   4.732  0.2072  0.7424  0.9213
 6204TP3     H118624   3.658   4.238   4.782 -1.6571  0.4424  0.4610
 6204TP3     H218625   3.705   4.297   4.651  0.5303  0.4197  1.1895
 6205TP3      O18626   3.711   5.262   5.223  0.7517 -0.5347  1.0911
 6205TP3     H118627   3.790   5.309   5.197  0.1128  0.2895  0.5927
 6205TP3     H218628   3.692   5.204   5.150 -0.9000  1.5998 -0.2888
 6206TP3      O18629   5.076   5.675   4.728 -0.2930  0.0157  0.3087
 6206TP3     H118630   5.151   5.656   4.671 -0.6551 -0.4872 -0.0146
 6206TP3     H218631   5.098   5.633   4.811 -0.0619  0.1711  0.3282
 6207TP3      O18632   4.698   4.604   5.133  0.1340 -0.0795 -0.4343
 6207TP3     H118633   4.717   4.513   5.112  0.5854  0.2651 -1.5898
 6207TP3     H218634   4.618   4.624   5.084  0.5794  0.4196 -0.9672
 6208TP3      O18635   5.570   3.850   4.899 -0.3564 -0.5854  0.1683
 6208TP3     H118636   5.569   3.868   4.805 -2.5749 -0.3362  0.1809
 6208TP3     H218637   5.628   3.916   4.935 -0.8317  0.4268 -0.8559
 6209TP3      O18638   3.894   5.641   3.892 -0.1161  0.2395 -0.5049
 6209TP3     H118639   3.816   5.588   3.875 -0.4967  0.7489 -0.3759
 6209TP3     H218640   3.963   5.577   3.906 -0.5831 -0.2300 -0.2783
 6210TP3      O18641   4.226   4.270   5.558  0.0028 -0.2759 -0.6029
 6210TP3     H118642   4.164   4.287   5.629 -1.1240 -1.4160 -1.2778
 6210TP3     H218643   4.287   4.207   5.595 -1.4528 -2.0398 -1.0315
 6211TP3      O18644   3.736   4.644   4.674 -0.1994 -0.2735  0.0042
 6211TP3     H118645   3.646   4.674   4.661 -0.1449  0.4486  1.1216
 6211TP3     H218646   3.734   4.598   4.758 -0.0725 -2.6346 -1.2342
 6212TP3      O18647   4.399   4.884   4.732  0.3073 -1.0544  0.4016
 6212TP3     H118648   4.456   4.936   4.675  2.9099 -1.3199  2.5852
 6212TP3     H218649   4.415   4.793   4.706  0.4024 -1.0961  0.6055
 6213TP3      O18650   4.609   5.473   5.432  0.2722  0.1362  0.1559
 6213TP3     H118651   4.513   5.480   5.432  0.1774 -0.7664  1.9961
 6213TP3     H218652   4.628   5.404   5.368 -0.4661 -1.0695  1.1952
 6214TP3      O18653   4.351   4.628   3.501 -0.2256 -0.1651 -0.1234
 6214TP3     H118654   4.392   4.703   3.545 -0.3948  1.0030 -1.8622
 6214TP3     H218655   4.367   4.642   3.408 -1.1096 -1.7983 -0.5718
 6215TP3      O18656   4.849   4.096   5.758 -0.3030 -0.1292 -0.1150
 6215TP3     H118657   4.908   4.147   5.814  0.3992  0.3943 -1.2926
 6215TP3     H218658   4.770   4.149   5.753  0.1929  0.5849 -0.8164
 6216TP3      O18659   4.011   4.581   3.747  0.2068 -0.1999 -0.3555
 6216TP3     H118660   4.085   4.559   3.804 -0.0258 -0.0111  0.0199
 6216TP3     H218661   3.978   4.664   3.782  0.0985 -0.0563 -0.7994
 6217TP3      O18662   5.832   4.444   4.258  0.2155  0.0148 -0.1486
 6217TP3     H118663   5.822   4.525   4.208 -3.4913  0.7241  1.3742
 6217TP3     H218664   5.806   4.375   4.197  2.2852  0.0048 -1.1033
 6218TP3      O18665   4.144   5.576   3.507  0.1722  0.2670 -0.5592
 6218TP3     H118666   4.128   5.561   3.414 -1.6530  1.6946 -0.5296
 6218TP3     H218667   4.091   5.653   3.529 -2.2001 -1.9619  2.4138
 6219TP3      O18668   0.233   4.379   2.904 -0.6857  0.7125 -0.2295
 6219TP3     H118669   0.267   4.411   2.987 -0.0035 -1.3632  0.3706
 6219TP3     H218670   0.139   4.394   2.909 -0.6976  0.3040  1.0929
 6220TP3      O18671   5.788   4.851   4.767  0.0932 -0.3724 -0.3088
 6220TP3     H118672   5.820   4.898   4.844 -0.5980 -0.5132  0.0727
 6220TP3     H218673   5.864   4.801   4.737  0.4050 -0.2248  0.2110
 6221TP3      O18674   4.639   5.274   5.249 -0.6164 -0.0651  0.2063
 6221TP3     H118675   4.613   5.302   5.161  2.3286  0.4996 -0.6094
 6221TP3     H218676   4.646   5.179   5.242  0.1576  0.0231 -0.3639
 6222TP3      O18677   4.809   4.707   4.278  0.3880  0.3117  0.5105
 6222TP3     H118678   4.882   4.734   4.334  0.5152  2.0673 -0.4528
 6222TP3     H218679   4.738   4.768   4.300 -0.7024 -1.1036  1.1350
 6223TP3      O18680   5.331   4.567   5.268 -0.2395 -0.1402  0.1276
 6223TP3     H118681   5.395   4.533   5.331 -0.4796 -0.1855  0.3521
 6223TP3     H218682   5.246   4.556   5.312 -0.3695  0.2417 -0.0219
 6224TP3      O18683   4.335   3.758   4.498 -0.0296 -0.1803  0.2019
 6224TP3     H118684   4.402   3.715   4.550 -0.5496 -0.2050  0.8631
 6224TP3     H218685   4.377   3.776   4.414  0.0212 -2.5642 -0.3430
 6225TP3      O18686   4.259   4.525   5.023 -0.5908  0.0211  0.3571
 6225TP3     H118687   4.235   4.433   5.008 -1.6130  0.4468 -0.7902
 6225TP3     H218688   4.223   4.545   5.110 -0.8069 -0.5215  0.4004
 6226TP3      O18689   4.926   4.990   3.364  0.1358  0.2164  0.0991
 6226TP3     H118690   4.970   4.909   3.388  0.0107 -0.0183 -0.4377
 6226TP3     H218691   4.939   4.997   3.269  1.6220  1.6932  0.3597
 6227TP3      O18692   5.606   0.359   5.570  0.4578 -0.7543 -0.4440
 6227TP3     H118693   5.538   0.293   5.553 -0.9897  0.5753 -0.0636
 6227TP3     H218694   5.593   0.383   5.661  0.6155  0.4376 -0.7291
 6228TP3      O18695   4.619   3.345   0.168  0.1687  0.2236 -0.1517
 6228TP3     H118696   4.537   3.340   0.119 -0.2949  0.3900  0.5917
 6228TP3     H218697   4.598   3.310   0.254  1.4623 -1.9371 -0.6290
 6229TP3      O18698   5.204   5.163   4.176 -0.1440 -0.2613  0.0072
 6229TP3     H118699   5.168   5.075   4.187 -0.4525 -0.4509 -2.2333
 6229TP3     H218700   5.176   5.191   4.089  2.2569  0.9405 -0.4812
 6230TP3      O18701   0.079   4.584   4.448  0.2442 -0.4931  0.4409
 6230TP3     H118702   0.031   4.666   4.434 -0.0315 -0.7821 -0.3325
 6230TP3     H218703   0.096   4.551   4.360 -0.5428 -1.7922  0.7542
 6231TP3      O18704   3.887   3.859   3.874  0.3074 -0.2875 -0.0396
 6231TP3     H118705   3.847   3.773   3.878  1.4366 -0.7830  1.1347
 6231TP3     H218706   3.907   3.881   3.965 -1.7536  2.1051 -0.0615
 6232TP3      O18707   5.162   3.690   4.444 -0.3906 -0.0482  0.2373
 6232TP3     H118708   5.112   3.769   4.465  0.1154 -0.1809  2.0280
 6232TP3     H218709   5.217   3.716   4.370 -1.9798  0.5331 -0.7987
 6233TP3      O18710   5.238   5.345   3.602 -0.0993  0.4554 -0.0496
 6233TP3     H118711   5.308   5.290   3.565  1.5746  1.3344  1.6345
 6233TP3     H218712   5.163   5.286   3.609  1.4338 -1.5165  1.1153
 6234TP3      O18713   4.492   4.946   5.019  0.2772  0.0302  0.0131
 6234TP3     H118714   4.503   4.851   5.009 -0.1609  0.1311 -1.8106
 6234TP3     H218715   4.415   4.966   4.966  0.6435  1.4860  0.0107
 6235TP3      O18716   5.454   4.059   5.521  0.2991  0.6151 -0.0040
 6235TP3     H118717   5.421   3.979   5.480 -2.2805  0.8377  1.3992
 6235TP3     H218718   5.379   4.092   5.572  1.8809  2.8713  1.0207
 6236TP3      O18719   3.914   3.335   4.480 -0.4714  0.3037 -0.1594
 6236TP3     H118720   3.948   3.254   4.518  0.4757  0.8259  0.1219
 6236TP3     H218721   3.819   3.324   4.482 -0.3673 -0.6262  0.2559
 6237TP3      O18722   4.995   5.057   4.429  0.3466 -0.5029 -0.6074
 6237TP3     H118723   5.033   4.974   4.458 -1.0206 -1.0845 -0.4163
 6237TP3     H218724   4.952   5.036   4.346 -0.5121 -0.1476 -0.2672
 6238TP3      O18725   4.341   5.237   4.607  0.2846 -0.1709 -0.0074
 6238TP3     H118726   4.372   5.314   4.559  0.7960 -0.5646 -0.3163
 6238TP3     H218727   4.408   5.170   4.592 -0.8008 -1.1120 -0.8850
 6239TP3      O18728   4.091   4.196   4.689  0.3490  0.6080  0.0289
 6239TP3     H118729   4.132   4.262   4.633  0.1439  0.5007 -0.2549
 6239TP3     H218730   4.125   4.214   4.776  1.4957  0.1210 -0.2987
 6240TP3      O18731   3.144   5.012   5.219 -0.3379  0.3642  0.1212
 6240TP3     H118732   3.074   5.048   5.165 -0.8002  1.8603  1.6515
 6240TP3     H218733   3.150   5.070   5.294  1.2524 -0.8355  1.0029
 6241TP3      O18734   4.916   4.611   4.029  0.2439 -0.6744  0.0959
 6241TP3     H118735   4.837   4.642   3.986  0.8784 -0.6774 -1.1110
 6241TP3     H218736   4.900   4.626   4.122 -0.1900  1.5835 -0.2980
 6242TP3      O18737   5.713   4.585   5.786  0.6536  0.0387  0.2897
 6242TP3     H118738   5.657   4.614   5.713  1.3611  0.2750 -0.1688
 6242TP3     H218739   5.791   4.550   5.743  0.1615 -1.8712  0.8494
 6243TP3      O18740   5.856   4.119   4.993  0.1312 -0.4033  0.5366
 6243TP3     H118741   5.922   4.127   4.925 -0.1146  0.5619  0.4040
 6243TP3     H218742   5.774   4.106   4.945  0.0715 -0.5212  0.6711
 6244TP3      O18743   5.233   4.108   5.750 -0.1567  0.2754  0.1071
 6244TP3     H118744   5.188   4.049   5.689 -0.8024 -0.8781  1.6270
 6244TP3     H218745   5.166   4.170   5.777 -0.1669  0.1169  0.4505
 6245TP3      O18746   4.272   5.206   3.988 -0.9050  0.2546 -0.1492
 6245TP3     H118747   4.367   5.202   3.979 -0.7350 -1.8944  1.8470
 6245TP3     H218748   4.257   5.275   4.053 -0.6567  0.1455  0.0268
 6246TP3      O18749   3.942   5.612   4.509  0.0397  0.0574  0.1543
 6246TP3     H118750   4.013   5.659   4.466  0.6100 -0.1460  0.8651
 6246TP3     H218751   3.957   5.625   4.602 -1.0872  0.3389  0.3060
 6247TP3      O18752   5.283   5.413   4.315  0.4045 -0.0634 -1.1501
 6247TP3     H118753   5.258   5.330   4.273 -1.0880 -0.7374  0.9363
 6247TP3     H218754   5.233   5.414   4.397  0.8459  2.6405 -0.8474
 6248TP3      O18755   5.284   5.348   5.320  0.0087 -0.1622 -0.1917
 6248TP3     H118756   5.189   5.360   5.312 -0.0366  1.0063  1.6172
 6248TP3     H218757   5.302   5.359   5.413  1.8104 -1.4446 -0.3357
 6249TP3      O18758   4.511   4.447   3.932 -0.1049 -0.0576  0.6543
 6249TP3     H118759   4.490   4.433   3.840  0.2662  1.3757  0.3206
 6249TP3     H218760   4.521   4.359   3.968 -0.5921 -0.6503 -0.5851
 6250TP3      O18761   5.954   4.906   3.938 -0.2721  0.4667 -0.7577
 6250TP3     H118762   5.974   4.813   3.945  1.6987  0.9002  0.2735
 6250TP3     H218763   5.876   4.918   3.992  1.0608 -0.1868  1.4252
 6251TP3      O18764   4.875   5.372   5.564  0.2586  0.0119  0.0127
 6251TP3     H118765   4.860   5.308   5.634 -1.4440 -0.5089 -0.7723
 6251TP3     H218766   4.794   5.372   5.514  0.7844  1.6827 -0.9295
 6252TP3      O18767   4.032   5.312   3.354  0.3306 -0.6146  0.2021
 6252TP3     H118768   4.011   5.382   3.416  0.8684 -1.3523  1.2723
 6252TP3     H218769   4.126   5.324   3.336 -0.0053  0.1154 -1.1830
 6253TP3      O18770   4.774   4.366   5.016  0.2069 -0.9489  0.0695
 6253TP3     H118771   4.742   4.342   4.928 -0.4150 -0.6417  0.2015
 6253TP3     H218772   4.763   4.287   5.068 -0.3613 -0.8471  0.1126
 6254TP3      O18773   4.444   5.497   4.077  0.6154  0.2033  0.1311
 6254TP3     H118774   4.478   5.529   3.993 -1.3634 -0.1506 -0.8376
 6254TP3     H218775   4.515   5.443   4.112  1.2102 -0.2453 -1.6649
 6255TP3      O18776   3.715   5.482   3.776  0.0741 -0.1604 -0.0073
 6255TP3     H118777   3.694   5.519   3.690  0.9997  0.7469  0.1331
 6255TP3     H218778   3.770   5.406   3.758 -0.5938 -0.5967 -0.2445
 6256TP3      O18779   0.403   4.556   4.204 -0.7534 -0.2406 -0.0348
 6256TP3     H118780   0.404   4.601   4.288 -2.1136  0.1298 -0.1848
 6256TP3     H218781   0.326   4.499   4.208 -0.6529 -0.4565 -0.9019
 6257TP3      O18782   5.190   5.749   4.011 -0.5628  0.4317  0.4346
 6257TP3     H118783   5.242   5.767   4.090  3.5835  0.7731 -2.0739
 6257TP3     H218784   5.198   5.654   4.000 -1.1905  0.3784  0.4460
 6258TP3      O18785   4.946   0.074   4.531  0.1399 -0.5184 -0.4981
 6258TP3     H118786   5.037   0.054   4.553  0.4014  0.7176 -0.3588
 6258TP3     H218787   4.895   0.023   4.594  0.7403 -0.9755 -0.3656
 6259TP3      O18788   3.976   5.307   3.684 -0.9087  0.4950  0.3532
 6259TP3     H118789   3.933   5.328   3.601  0.4269  0.1906 -0.4473
 6259TP3     H218790   4.043   5.375   3.695 -1.4169  0.8379  1.4609
 6260TP3      O18791   5.350   4.037   6.001  0.3214  0.3677 -0.0806
 6260TP3     H118792   5.437   4.008   5.972 -0.9331 -4.0218 -0.1379
 6260TP3     H218793   5.293   4.022   5.926 -1.0131  0.1384  0.9348
 6261TP3      O18794   5.488   4.488   3.741  0.0889  0.6542  0.1085
 6261TP3     H118795   5.507   4.578   3.767 -2.1664  0.8323  1.3405
 6261TP3     H218796   5.396   4.475   3.763  0.0891 -1.6517 -0.9697
 6262TP3      O18797   4.708   4.552   5.698 -0.4622 -0.4042 -0.0396
 6262TP3     H118798   4.626   4.573   5.742 -0.1634  0.5085  0.0954
 6262TP3     H218799   4.769   4.621   5.725 -0.3707  0.4101 -2.1603
 6263TP3      O18800   4.294   0.143   5.135  0.1023  0.0099 -0.0978
 6263TP3     H118801   4.267   0.109   5.220 -1.9178 -0.3496 -0.8243
 6263TP3     H218802   4.305   0.237   5.149  0.1412 -0.0947  0.6237
 6264TP3      O18803   4.241   5.221   4.870  0.0699 -0.2144 -0.6491
 6264TP3     H118804   4.258   5.225   4.776 -1.0591  0.0960 -0.8466
 6264TP3     H218805   4.292   5.293   4.907  2.1818 -1.5561 -0.7292
 6265TP3      O18806   5.113   5.001   4.777  0.2086  1.3514  0.1517
 6265TP3     H118807   5.029   5.047   4.788  1.2713  3.2343  0.8086
 6265TP3     H218808   5.143   5.027   4.690 -1.1889 -1.7041 -1.4098
 6266TP3      O18809   5.015   4.476   4.731  0.5484 -0.3269  0.3182
 6266TP3     H118810   5.041   4.441   4.816  0.0266  0.2095  0.7077
 6266TP3     H218811   5.058   4.562   4.727  1.1258 -0.6346 -0.2588
 6267TP3      O18812   4.679   3.968   4.804  0.4113  0.1005  0.3850
 6267TP3     H118813   4.730   3.907   4.857  0.6649  1.4091  1.6896
 6267TP3     H218814   4.717   3.961   4.716  0.6986 -1.3003  0.5966
 6268TP3      O18815   4.716   4.731   3.366  0.0513 -0.2963  0.3736
 6268TP3     H118816   4.740   4.767   3.281  2.4079  0.5462  1.3105
 6268TP3     H218817   4.643   4.786   3.396  0.4528  0.6188 -0.2935
 6269TP3      O18818   3.552   3.430   4.182 -0.1313  0.1433 -0.0996
 6269TP3     H118819   3.584   3.516   4.209  1.5210 -0.3993 -0.1802
 6269TP3     H218820   3.595   3.414   4.098 -2.7624  0.4677 -1.5972
 6270TP3      O18821   5.208   4.369   4.543 -0.6612  0.0053 -0.2851
 6270TP3     H118822   5.153   4.388   4.619  0.5831  1.1316  0.3768
 6270TP3     H218823   5.267   4.445   4.536 -1.1538  0.2447 -2.7659
 6271TP3      O18824   4.594   4.379   5.496 -0.4772  0.1520  0.0092
 6271TP3     H118825   4.653   4.454   5.490 -0.3834  0.1887  1.1379
 6271TP3     H218826   4.622   4.333   5.575 -2.3503  0.5368  0.9642
 6272TP3      O18827   4.991   5.212   3.600  0.3967  0.2170  0.4827
 6272TP3     H118828   4.901   5.206   3.634  0.7919  0.7746  1.6642
 6272TP3     H218829   4.980   5.230   3.507 -0.7208  1.3918  0.8168
 6273TP3      O18830   3.340   5.751   4.806  0.2831 -0.0871  0.5943
 6273TP3     H118831   3.250   5.742   4.836  0.0483 -0.4527 -0.1885
 6273TP3     H218832   3.363   5.665   4.770  0.9075  0.0278  0.6967
 6274TP3      O18833   5.307   5.940   4.307 -0.0440 -0.0663 -0.2279
 6274TP3     H118834   5.222   5.964   4.269 -0.4082 -0.3666  0.3748
 6274TP3     H218835   5.316   5.847   4.288  0.1279 -0.0450 -0.2484
 6275TP3      O18836   5.841   4.731   4.139  0.0923 -0.6463 -0.1214
 6275TP3     H118837   5.849   4.698   4.050 -0.6535  0.3787 -0.5809
 6275TP3     H218838   5.753   4.768   4.143 -0.8440 -2.7848  1.7464
 6276TP3      O18839   2.914   3.411   0.205 -0.3341 -0.2369 -0.0736
 6276TP3     H118840   2.875   3.468   0.139  0.8725  0.7939  0.0786
 6276TP3     H218841   2.965   3.347   0.154 -0.2914 -0.1192 -0.1798
 6277TP3      O18842   4.564   4.159   5.119 -0.1320 -0.1096 -0.3797
 6277TP3     H118843   4.511   4.228   5.160 -0.6643 -0.9245  0.3392
 6277TP3     H218844   4.531   4.154   5.029 -0.6465  0.0254 -0.2026
 6278TP3      O18845   4.486   3.052   4.964  0.2982 -0.2499  0.0480
 6278TP3     H118846   4.561   3.029   5.018  2.4650  3.6828 -0.8817
 6278TP3     H218847   4.434   3.111   5.019  0.2901  0.4865 -0.7193
 6279TP3      O18848   4.877   4.172   4.551 -0.7605  0.4865 -0.3582
 6279TP3     H118849   4.900   4.229   4.478 -0.5491  0.2301 -0.4932
 6279TP3     H218850   4.860   4.087   4.511  0.9556 -0.0896  0.0555
 6280TP3      O18851   5.593   4.154   4.409 -0.0745  0.0043  0.1572
 6280TP3     H118852   5.575   4.111   4.493  2.7914 -1.9216 -0.0898
 6280TP3     H218853   5.637   4.235   4.433  2.8818 -1.6039  0.6542
 6281TP3      O18854   5.540   4.672   4.095 -0.3473 -0.2734  0.6169
 6281TP3     H118855   5.445   4.666   4.093 -0.6410  2.5791  0.8762
 6281TP3     H218856   5.558   4.766   4.090  2.5702 -0.7185 -4.0020
 6282TP3      O18857   5.346   4.668   3.506 -0.4569 -0.0169 -0.3675
 6282TP3     H118858   5.286   4.593   3.514 -1.4365  0.4571 -2.4683
 6282TP3     H218859   5.415   4.651   3.570 -1.7012 -1.6948  0.6068
 6283TP3      O18860   4.329   5.268   3.307  0.2547  0.1201  0.2783
 6283TP3     H118861   4.385   5.192   3.291  0.5870  0.2963  0.6056
 6283TP3     H218862   4.326   5.312   3.222  1.8903  0.9643  0.6150
 6284TP3      O18863   5.791   4.329   4.529  0.2856  0.2163  0.8678
 6284TP3     H118864   5.789   4.386   4.452 -1.0233 -1.5320 -0.4736
 6284TP3     H218865   5.878   4.290   4.527  0.6104  0.9254  0.8540
 6285TP3      O18866   4.901   4.076   3.936  0.3655 -0.2357 -0.5026
 6285TP3     H118867   4.863   4.012   3.996  2.9665 -2.7391 -1.2923
 6285TP3     H218868   4.937   4.023   3.865  1.4437  2.2696 -1.9499
 6286TP3      O18869   3.865   3.934   3.558  0.0581 -1.1215 -0.1438
 6286TP3     H118870   3.843   3.932   3.651  1.0578 -2.2063  0.0983
 6286TP3     H218871   3.860   4.026   3.533  0.5171 -0.7190  1.1769
 6287TP3      O18872   4.316   5.389   5.083  0.1149  0.2980  0.1229
 6287TP3     H118873   4.223   5.404   5.068  0.2349 -0.6110 -1.8934
 6287TP3     H218874   4.320   5.340   5.165 -1.4142 -1.5556 -0.8222
 6288TP3      O18875   5.835   5.715   5.457 -0.1823  0.0390 -0.3973
 6288TP3     H118876   5.876   5.689   5.374 -0.9474  0.6203 -0.9740
 6288TP3     H218877   5.743   5.725   5.435 -0.7120 -1.4599  0.9259
 6289TP3      O18878   0.114   5.432   5.902  0.4915 -0.0611 -0.1091
 6289TP3     H118879   0.154   5.502   5.954 -2.8074  0.2329  2.3909
 6289TP3     H218880   0.072   5.477   5.829  0.7038  0.1997 -0.0741
 6290TP3      O18881   4.868   5.113   4.753  0.1883 -0.2252  0.4640
 6290TP3     H118882   4.814   5.039   4.727 -0.1039 -0.6075  2.0055
 6290TP3     H218883   4.822   5.151   4.828  0.3667  1.4918 -0.2504
 6291TP3      O18884   5.091   4.741   4.699  0.4895 -0.1558  0.0697
 6291TP3     H118885   5.085   4.827   4.740  0.0587 -0.0083 -0.2845
 6291TP3     H218886   5.141   4.756   4.619 -0.4599 -0.0211 -0.5173
 6292TP3      O18887   5.018   3.485   4.696  0.0575  0.0185 -0.1667
 6292TP3     H118888   5.114   3.494   4.695  0.1541 -0.5110  1.5376
 6292TP3     H218889   5.003   3.392   4.678  0.2051 -1.1473  4.4332
 6293TP3      O18890   3.375   5.801   5.174 -0.1061  0.5160  0.2240
 6293TP3     H118891   3.446   5.818   5.112 -1.8961 -0.5293 -2.3003
 6293TP3     H218892   3.335   5.720   5.143 -2.0108  0.6989  1.9452
 6294TP3      O18893   3.684   4.218   3.611 -0.0504 -0.5627  0.0671
 6294TP3     H118894   3.736   4.233   3.689 -1.3094  0.9638  0.6730
 6294TP3     H218895   3.730   4.266   3.542  0.8387 -1.5666 -0.0469
 6295TP3      O18896   4.524   4.563   4.179 -0.1104 -0.3120  0.1917
 6295TP3     H118897   4.604   4.515   4.201 -0.5855 -1.0455  0.3597
 6295TP3     H218898   4.502   4.531   4.091 -0.2337 -0.1274  0.1561
 6296TP3      O18899   5.049   4.291   5.248 -0.6687  0.6861  0.4413
 6296TP3     H118900   5.131   4.301   5.295  0.9535  0.1003 -2.0901
 6296TP3     H218901   5.009   4.213   5.286  0.2050  0.6505  1.3332
 6297TP3      O18902   4.003   5.785   4.934 -0.4744  0.2258  0.1172
 6297TP3     H118903   4.095   5.800   4.956  0.3495 -0.6676 -2.3618
 6297TP3     H218904   3.969   5.734   5.007  1.1945 -0.0322  0.7674
 6298TP3      O18905   3.990   4.728   5.192  0.2121 -0.5251 -0.2993
 6298TP3     H118906   4.070   4.696   5.234  1.7577  1.5447 -1.4491
 6298TP3     H218907   4.014   4.738   5.100 -1.9322 -1.4309 -1.0191
 6299TP3      O18908   4.212   4.226   4.961  0.3253 -0.3165 -0.0301
 6299TP3     H118909   4.189   4.184   5.043 -0.9566 -0.3460 -0.3772
 6299TP3     H218910   4.270   4.164   4.917 -0.1339 -0.9377  0.2361
 6300TP3      O18911   4.728   5.645   4.254 -1.0809 -0.5201  0.2242
 6300TP3     H118912   4.763   5.735   4.258  0.2323 -1.0275  0.6099
 6300TP3     H218913   4.778   5.604   4.183 -2.6537 -0.5755 -0.9206
 6301TP3      O18914   5.911   4.420   4.906 -0.2890 -0.5864 -0.2604
 6301TP3     H118915   5.832   4.392   4.859 -1.0431  1.8367 -0.6025
 6301TP3     H218916   5.969   4.453   4.837  0.6230 -1.4161  0.0944
 6302TP3      O18917   4.500   4.308   4.417  0.6163  0.1730 -0.1489
 6302TP3     H118918   4.447   4.253   4.359 -0.9173  1.4586 -0.0289
 6302TP3     H218919   4.465   4.291   4.505  0.6670  0.7431 -0.0157
 6303TP3      O18920   5.148   5.674   0.188  0.0643 -0.0220 -0.3936
 6303TP3     H118921   5.056   5.690   0.207  0.4522  2.1779 -0.0427
 6303TP3     H218922   5.193   5.695   0.270  0.8622 -1.6080 -0.3929
 6304TP3      O18923   4.776   4.639   4.803  0.3056 -0.0987  0.3258
 6304TP3     H118924   4.858   4.633   4.754  0.8949  0.8966  1.1519
 6304TP3     H218925   4.756   4.548   4.827  1.2128 -0.3438  0.1803
 6305TP3      O18926   4.349   5.260   5.307  0.2668 -0.2516 -0.2068
 6305TP3     H118927   4.298   5.240   5.385 -0.3906  1.7685 -0.0790
 6305TP3     H218928   4.435   5.223   5.325  0.6961  1.7040  2.2979
 6306TP3      O18929   4.993   3.592   5.079  0.0435 -0.4212  0.3191
 6306TP3     H118930   5.058   3.549   5.134 -0.1761 -1.1259  0.0466
 6306TP3     H218931   5.040   3.663   5.036  0.6341 -0.9079  0.1415
 6307TP3      O18932   5.078   4.032   5.407 -1.0415  0.0490 -0.1329
 6307TP3     H118933   5.125   4.000   5.484 -1.3370  2.1468  1.0073
 6307TP3     H218934   4.986   4.010   5.424 -0.9514 -0.6874 -0.5567
 6308TP3      O18935   4.768   4.333   4.757  0.0970 -0.0246  0.1578
 6308TP3     H118936   4.829   4.329   4.683 -0.6068  2.2241 -0.6358
 6308TP3     H218937   4.682   4.335   4.716 -0.3828 -0.1580  1.1354
 6309TP3      O18938   4.187   4.243   4.422 -0.1347  0.6337 -0.3195
 6309TP3     H118939   4.152   4.251   4.333  1.0438  0.9828 -0.7650
 6309TP3     H218940   4.223   4.154   4.426  1.1818  1.1294 -0.7164
 6310TP3      O18941   5.183   4.927   3.925  0.5164 -0.0554  0.0761
 6310TP3     H118942   5.164   4.929   3.831  1.9956 -0.8578 -0.2745
 6310TP3     H218943   5.257   4.987   3.935 -0.7613  1.4473  1.0620
 6311TP3      O18944   3.811   4.523   5.232  0.2472  0.4291  0.1962
 6311TP3     H118945   3.788   4.498   5.322  1.6106  0.6194  0.6178
 6311TP3     H218946   3.879   4.590   5.243  1.3520 -0.4647 -0.9933
 6312TP3      O18947   3.660   4.842   4.869  0.6288  0.2014  0.0444
 6312TP3     H118948   3.707   4.837   4.786  0.9175  1.5350  0.0990
 6312TP3     H218949   3.614   4.926   4.865 -1.5737 -0.9265  0.1053
 6313TP3      O18950   4.424   3.805   4.230 -0.4462  0.0845 -0.1257
 6313TP3     H118951   4.368   3.763   4.164  0.2082  1.5104 -1.6448
 6313TP3     H218952   4.512   3.802   4.193 -0.0903  1.1040  0.6011
 6314TP3      O18953   5.318   4.912   5.739  0.0638  0.3268 -0.5266
 6314TP3     H118954   5.351   4.827   5.712 -1.5332 -0.3253 -0.5313
 6314TP3     H218955   5.356   4.926   5.826 -1.5476 -1.5584  0.5598
 6315TP3      O18956   5.298   4.080   3.634  0.7117  0.2343 -0.2308
 6315TP3     H118957   5.262   4.064   3.547  1.6290  2.9115 -1.2045
 6315TP3     H218958   5.227   4.125   3.681  1.2603  1.7268 -0.7540
 6316TP3      O18959   5.224   4.258   4.282  0.6827 -0.7165  0.2880
 6316TP3     H118960   5.135   4.236   4.257  1.0006 -1.6810 -0.0499
 6316TP3     H218961   5.216   4.296   4.369 -0.1172 -0.2105  0.0040
 6317TP3      O18962   4.669   5.316   4.225 -0.1528  0.4081 -0.2292
 6317TP3     H118963   4.689   5.281   4.311 -1.0914  0.8057  0.1614
 6317TP3     H218964   4.732   5.273   4.166  1.4190  1.1490  0.8385
 6318TP3      O18965   4.914   5.432   5.925  0.1433 -0.5352  0.8502
 6318TP3     H118966   4.973   5.496   5.965  0.3373 -1.2996  1.8138
 6318TP3     H218967   4.833   5.440   5.975  0.0915 -0.8790  0.8213
 6319TP3      O18968   0.095   4.929   5.613 -0.1604  0.8106  0.3726
 6319TP3     H118969   0.174   4.879   5.635 -0.3647  0.4814  0.3615
 6319TP3     H218970   0.076   4.978   5.693  0.8571  1.9788 -0.0791
 6320TP3      O18971   4.071   4.314   0.294  0.1839 -0.2210 -0.3436
 6320TP3     H118972   4.078   4.366   0.214 -0.7705 -0.2315 -0.4427
 6320TP3     H218973   4.055   4.225   0.263 -0.9269 -0.1044 -0.1444
 6321TP3      O18974   4.126   3.037   3.637  0.3710 -0.1945 -0.0668
 6321TP3     H118975   4.101   2.978   3.708 -3.4724  0.0457 -0.9801
 6321TP3     H218976   4.042   3.067   3.600  2.1483  2.8573 -2.1123
 6322TP3      O18977   4.840   4.932   3.971  0.3066  0.6500  0.9108
 6322TP3     H118978   4.766   4.882   3.937  1.0181  0.3573 -0.2860
 6322TP3     H218979   4.913   4.908   3.913  1.8166 -0.5166  3.1528
 6323TP3      O18980   4.385   5.452   4.453  0.1085  0.0662  0.5754
 6323TP3     H118981   4.478   5.473   4.460 -0.0740  2.1917 -1.8280
 6323TP3     H218982   4.340   5.533   4.478 -1.1041 -0.8205  1.3500
 6324TP3      O18983   4.654   4.502   4.561 -0.0330 -0.2945 -0.3895
 6324TP3     H118984   4.617   4.431   4.509 -1.7306  0.0905  0.2435
 6324TP3     H218985   4.589   4.519   4.628 -0.2275  2.6350 -1.1897
 6325TP3      O18986   4.196   4.057   5.179 -0.0840  0.1928  0.3855
 6325TP3     H118987   4.245   4.011   5.247  0.2832  1.2571  0.8601
 6325TP3     H218988   4.125   4.101   5.226  0.2768  1.0794  0.1117
 6326TP3      O18989   5.111   3.709   5.349 -0.1069  0.0358  0.8532
 6326TP3     H118990   5.077   3.641   5.408  0.7923 -0.3540  0.9482
 6326TP3     H218991   5.047   3.714   5.279 -2.3919  2.0933  2.9225
 6327TP3      O18992   5.027   4.469   5.052  0.0398 -0.1986 -0.1841
 6327TP3     H118993   5.073   4.393   5.087  0.9507  1.2205  1.8655
 6327TP3     H218994   4.935   4.452   5.072  0.2472 -0.6891  0.3711
 6328TP3      O18995   2.797   0.341   3.938 -0.1983  0.6699  0.0024
 6328TP3     H118996   2.884   0.381   3.946 -0.1795  0.4517  1.0745
 6328TP3     H218997   2.769   0.327   4.029 -0.7730 -0.5174 -0.3388
 6329TP3      O18998   3.513   0.280   4.495 -0.8181 -0.2874  0.2103
 6329TP3     H118999   3.595   0.270   4.446  1.0653  0.4465  3.0129
 6329TP3     H219000   3.538   0.326   4.575 -3.5947 -1.9242  2.1949
 6330TP3      O19001   4.102   5.115   4.445  0.5807 -0.1784 -0.3318
 6330TP3     H119002   4.174   5.144   4.501  1.1310  1.0226 -1.5884
 6330TP3     H219003   4.139   5.046   4.390  0.6256  0.0494 -0.5922
 6331TP3      O19004   4.459   3.793   4.817 -0.4612 -0.5591  0.2421
 6331TP3     H119005   4.522   3.862   4.797 -1.0009  0.0032  0.4473
 6331TP3     H219006   4.481   3.723   4.756  0.2765 -0.3221  0.2241
 6332TP3      O19007   3.102   3.425   4.374 -0.3219 -0.1212 -0.4871
 6332TP3     H119008   3.100   3.521   4.366 -0.6917 -0.0321  0.5243
 6332TP3     H219009   3.158   3.396   4.302  2.2043  1.0639  0.8524
 6333TP3      O19010   3.995   3.866   0.882  0.0678  0.5734 -0.2755
 6333TP3     H119011   3.941   3.922   0.826  2.2175  0.3771 -2.7367
 6333TP3     H219012   4.082   3.906   0.880  0.8434 -0.9642  0.6885
 6334TP3      O19013   4.961   4.460   5.580  0.3963  0.5834 -0.3188
 6334TP3     H119014   4.943   4.414   5.662  0.3598 -0.1519 -0.7329
 6334TP3     H219015   4.889   4.522   5.571 -0.9982 -1.0583 -1.0330
 6335TP3      O19016   5.496   4.816   4.689 -0.3114  0.6241  0.0423
 6335TP3     H119017   5.457   4.802   4.775  0.3754 -0.3062  0.2134
 6335TP3     H219018   5.591   4.814   4.705 -0.0464 -2.8171 -1.1557
 6336TP3      O19019   5.842   4.181   5.253  0.9671 -0.2852  0.4476
 6336TP3     H119020   5.824   4.153   5.163  0.9388  0.5136  0.1956
 6336TP3     H219021   5.836   4.277   5.250  1.3084 -0.2309  1.2259
 6337TP3      O19022   3.048   5.049   5.598 -0.4267 -0.4034 -0.7535
 6337TP3     H119023   3.054   5.086   5.510  1.5784 -1.9161 -1.3391
 6337TP3     H219024   3.024   4.957   5.584  0.9287 -0.9339  0.1509
 6338TP3      O19025   4.532   5.023   5.270 -0.0382 -0.4034  0.0231
 6338TP3     H119026   4.499   5.015   5.181 -1.3158 -1.7072  0.5720
 6338TP3     H219027   4.597   4.954   5.279 -0.2491 -0.5794  0.2252
 6339TP3      O19028   3.725   0.175   5.587  0.2047  0.1199 -0.4469
 6339TP3     H119029   3.689   0.263   5.601 -0.9783 -0.4488  0.3266
 6339TP3     H219030   3.794   0.167   5.653  0.1263  0.3746 -0.3308
 6340TP3      O19031   3.693   4.287   4.033 -0.3301 -0.1345 -0.1585
 6340TP3     H119032   3.666   4.363   3.982 -2.5733  0.0513  1.1855
 6340TP3     H219033   3.778   4.262   3.996  0.6039  3.1319 -0.4971
 6341TP3      O19034   3.840   5.067   4.558  0.2075  0.2898 -0.8857
 6341TP3     H119035   3.856   5.049   4.651 -0.3988 -1.4291 -1.0932
 6341TP3     H219036   3.928   5.068   4.519  0.4448  0.7291 -0.3574
 6342TP3      O19037   4.926   4.279   4.258 -0.2156  0.4249  0.0584
 6342TP3     H119038   4.911   4.348   4.323 -0.2262 -0.3443  0.8991
 6342TP3     H219039   4.838   4.259   4.225 -0.1543  1.1734 -0.5815
 6343TP3      O19040   4.953   5.263   3.337 -0.5259 -0.8290 -0.1997
 6343TP3     H119041   4.879   5.286   3.281 -0.8806 -0.1712  0.5269
 6343TP3     H219042   5.028   5.307   3.297 -1.2348  2.0889  1.3503
 6344TP3      O19043   0.278   5.455   5.244  0.4273 -0.0836 -0.0582
 6344TP3     H119044   0.223   5.387   5.205  0.2743  0.1957 -0.3341
 6344TP3     H219045   0.249   5.461   5.335  2.2258 -2.2679  0.7616
 6345TP3      O19046   4.545   5.767   4.675 -0.5655  0.5450 -0.0632
 6345TP3     H119047   4.588   5.712   4.609  2.7077  0.2133  2.1136
 6345TP3     H219048   4.504   5.705   4.734 -1.8688  0.7682 -0.6998
 6346TP3      O19049   4.002   4.248   5.249  0.5186 -0.2296 -0.4526
 6346TP3     H119050   4.051   4.323   5.282 -0.3270 -0.7343  2.1164
 6346TP3     H219051   3.917   4.284   5.223  0.1061 -0.2509  0.7966
 6347TP3      O19052   4.127   5.437   0.210  0.3903  0.2786  0.1994
 6347TP3     H119053   4.218   5.467   0.212  1.2189 -1.9960 -0.3102
 6347TP3     H219054   4.112   5.412   0.118 -0.3052 -0.5610  0.5288
 6348TP3      O19055   5.531   3.011   3.563  0.8916 -0.0007  0.4902
 6348TP3     H119056   5.524   3.106   3.578 -1.8949 -0.2725  1.5408
 6348TP3     H219057   5.444   2.986   3.531  1.6272 -2.1984  0.0862
 6349TP3      O19058   5.219   4.864   4.480  0.0387  0.6764  0.5681
 6349TP3     H119059   5.182   4.808   4.412  2.1699 -0.5265  0.3240
 6349TP3     H219060   5.301   4.896   4.443  0.3428  1.4937  1.8811
 6350TP3      O19061   3.330   4.674   5.019 -0.6250 -0.2754 -0.6894
 6350TP3     H119062   3.381   4.595   5.039 -0.7178 -0.5740 -1.5753
 6350TP3     H219063   3.390   4.746   5.033 -1.0034 -0.3532  1.7498
 6351TP3      O19064   5.411   4.250   4.679  0.0166  0.1449 -0.3964
 6351TP3     H119065   5.366   4.274   4.599  0.4472 -0.3679 -0.8016
 6351TP3     H219066   5.352   4.188   4.723 -0.1239  0.2630 -0.4203
 6352TP3      O19067   4.877   5.458   4.594  0.0500  0.3434 -0.6859
 6352TP3     H119068   4.935   5.400   4.545 -0.8335 -0.1322 -1.1843
 6352TP3     H219069   4.928   5.539   4.604  0.3446  0.3786 -2.2100
 6353TP3      O19070   3.563   5.634   3.577  0.2072 -0.8586  0.5629
 6353TP3     H119071   3.587   5.684   3.499  1.1145 -0.6288  0.9834
 6353TP3     H219072   3.515   5.558   3.542  2.0274 -1.6361 -0.3665
 6354TP3      O19073   4.750   5.071   5.049  0.7533  0.5449  1.0635
 6354TP3     H119074   4.793   4.986   5.035 -0.4137 -0.4790  3.1427
 6354TP3     H219075   4.657   5.054   5.035  0.6297  1.8646  0.0924
 6355TP3      O19076   5.677   3.292   4.642 -0.2470  0.0761  0.6542
 6355TP3     H119077   5.718   3.371   4.608 -0.4440  0.1864  0.6720
 6355TP3     H219078   5.750   3.237   4.670  0.0667 -0.8687 -1.7651
 6356TP3      O19079   3.671   3.902   4.709  0.5943 -0.0905 -0.2144
 6356TP3     H119080   3.581   3.875   4.724 -0.1167  3.0901  2.2746
 6356TP3     H219081   3.719   3.868   4.786  1.1750 -0.2839 -0.6514
 6357TP3      O19082   5.067   4.922   4.169  0.2914 -0.3188  0.3768
 6357TP3     H119083   4.972   4.918   4.170  0.1991  1.2163  0.5715
 6357TP3     H219084   5.090   4.922   4.076 -0.1605  2.6451  0.1488
 6358TP3      O19085   4.224   4.954   4.936  0.1140 -0.4476 -0.2259
 6358TP3     H119086   4.225   5.039   4.891 -0.1101 -1.2726 -1.8541
 6358TP3     H219087   4.285   4.900   4.887 -0.4882 -1.5256  0.1769
 6359TP3      O19088   5.538   4.555   4.367  0.4336  0.3274  0.2307
 6359TP3     H119089   5.548   4.523   4.278 -0.4859  0.9437 -0.1091
 6359TP3     H219090   5.545   4.650   4.359 -2.1603  0.5945  0.4050
 6360TP3      O19091   5.012   5.521   3.577 -0.0585 -0.2691  0.4436
 6360TP3     H119092   5.027   5.427   3.577  2.5672  0.0854  0.1524
 6360TP3     H219093   4.931   5.532   3.527  1.5047 -2.1349 -2.8041
 6361TP3      O19094   4.206   4.889   5.231 -0.3513  0.2250 -0.2579
 6361TP3     H119095   4.115   4.895   5.258 -0.2160  0.9943  0.0570
 6361TP3     H219096   4.207   4.925   5.142 -0.4376 -0.2914 -0.4734
 6362TP3      O19097   5.157   4.629   4.368  0.0522  0.0806  0.3038
 6362TP3     H119098   5.233   4.615   4.424 -0.8969 -0.5321  1.4813
 6362TP3     H219099   5.094   4.563   4.396 -2.2002  2.5890  1.7379
 6363TP3      O19100   4.737   5.213   4.476  0.4900  0.2147 -0.3716
 6363TP3     H119101   4.804   5.146   4.463 -0.9096 -1.1549 -0.7728
 6363TP3     H219102   4.755   5.249   4.563  0.1002 -2.0907  0.7427
 6364TP3      O19103   5.349   3.823   5.440 -0.0771 -0.0782  0.7441
 6364TP3     H119104   5.382   3.740   5.476  0.6296 -0.1230  0.0068
 6364TP3     H219105   5.255   3.807   5.427  0.0989 -0.8539  0.3611
 6365TP3      O19106   4.774   5.011   4.241  0.2062 -0.5402 -0.0582
 6365TP3     H119107   4.682   5.036   4.247 -0.4636 -2.8417  0.2319
 6365TP3     H219108   4.785   4.977   4.152 -0.0093 -2.8571  0.7297
 6366TP3      O19109   5.647   4.485   4.701 -0.1566  0.2928  0.3358
 6366TP3     H119110   5.570   4.428   4.707  1.2776 -1.6078  4.1020
 6366TP3     H219111   5.706   4.438   4.642  0.1370 -1.1232  1.6717
 6367TP3      O19112   5.171   5.932   4.941  0.1685  0.2953 -0.8646
 6367TP3     H119113   5.123   5.999   4.990 -0.8237 -0.2924 -0.9971
 6367TP3     H219114   5.172   5.965   4.851 -0.5413  0.0314 -0.9776
 6368TP3      O19115   3.542   5.116   5.556 -0.0168 -0.5978  0.2388
 6368TP3     H119116   3.495   5.106   5.474 -2.6104 -0.9173  1.6454
 6368TP3     H219117   3.604   5.187   5.541  2.2353 -2.9571 -3.0214
 6369TP3      O19118   4.976   4.622   5.375 -0.4237 -0.0809  0.1820
 6369TP3     H119119   4.996   4.589   5.288 -0.1667 -1.2398  0.6713
 6369TP3     H219120   4.984   4.546   5.433 -0.4561  0.6962  1.2415
 6370TP3      O19121   4.244   3.271   3.629  0.0559  0.3825  0.1699
 6370TP3     H119122   4.221   3.283   3.721 -0.7251 -0.6732  0.1326
 6370TP3     H219123   4.206   3.186   3.606  0.6031  0.4395 -1.0131
 6371TP3      O19124   5.250   5.310   4.704  0.1089 -0.3551  0.3201
 6371TP3     H119125   5.280   5.398   4.679 -1.1321 -0.3595 -1.3221
 6371TP3     H219126   5.241   5.315   4.799  0.5463  1.1373  0.3205
 6372TP3      O19127   4.552   3.528   5.070 -0.0993  0.9466  0.0827
 6372TP3     H119128   4.619   3.523   5.001  0.3198 -1.4015  0.5477
 6372TP3     H219129   4.471   3.551   5.024  0.1569 -0.6468 -1.2709
 6373TP3      O19130   4.819   5.208   4.003  0.4107  0.0584 -0.2964
 6373TP3     H119131   4.837   5.117   3.979 -2.4380 -0.8455  0.6595
 6373TP3     H219132   4.900   5.254   3.980  2.7770 -3.0183  1.0890
 6374TP3      O19133   3.708   5.333   5.567  0.1269  0.3603  0.0318
 6374TP3     H119134   3.692   5.416   5.522  1.3820  0.8306  0.4076
 6374TP3     H219135   3.794   5.305   5.535 -0.6693 -1.2819 -0.7856
 6375TP3      O19136   5.530   4.823   4.404 -0.6828 -0.0028  0.2923
 6375TP3     H119137   5.559   4.913   4.389  1.3036 -0.6514  0.0602
 6375TP3     H219138   5.540   4.810   4.498 -1.7987  0.2535  0.4700
 6376TP3      O19139   5.368   4.345   5.689  0.0763 -0.2358 -1.1707
 6376TP3     H119140   5.327   4.269   5.731 -1.8450  1.1896 -0.3436
 6376TP3     H219141   5.456   4.349   5.728 -0.2677 -1.2631 -0.2399
 6377TP3      O19142   5.563   5.629   5.685 -0.1667  0.1187  0.0676
 6377TP3     H119143   5.523   5.554   5.641 -1.3871  0.1423  1.0838
 6377TP3     H219144   5.496   5.697   5.681  0.3664  0.6798  0.4436
 6378TP3      O19145   3.483   0.009   5.650  0.3936  0.2848  0.4873
 6378TP3     H119146   3.571   0.044   5.639 -0.1698  1.4378 -0.5611
 6378TP3     H219147   3.478  -0.016   5.742  2.4821 -1.7342  0.1538
 6379TP3      O19148   4.868   3.956   4.326  0.7790 -0.7060 -0.3235
 6379TP3     H119149   4.838   4.035   4.281 -1.4048 -0.2502  1.7399
 6379TP3     H219150   4.898   3.898   4.256  1.0814  1.3709 -2.0008
 6380TP3      O19151   4.746   3.314   4.337 -0.7423 -0.6550 -0.1040
 6380TP3     H119152   4.783   3.335   4.423  1.9459  1.0521 -1.5283
 6380TP3     H219153   4.663   3.361   4.335 -0.0912  0.6104  1.0060
 6381TP3      O19154   5.606   3.727   4.353  0.0579 -0.3493  0.1369
 6381TP3     H119155   5.696   3.748   4.326  1.2716 -1.8729  2.6168
 6381TP3     H219156   5.604   3.631   4.356 -2.1651 -0.3921 -1.3141
 6382TP3      O19157   5.898   3.465   5.749 -0.0313  0.3158  0.1692
 6382TP3     H119158   5.832   3.476   5.680 -0.3773  0.8560  0.5719
 6382TP3     H219159   5.951   3.544   5.744  1.3291 -0.6254 -0.9019
 6383TP3      O19160   5.658   4.894   5.503 -0.1003 -0.3911  1.0042
 6383TP3     H119161   5.666   4.872   5.411 -1.2385  0.1770  0.7561
 6383TP3     H219162   5.599   4.828   5.539 -3.0008  1.6432  0.3953
 6384TP3      O19163   4.237   4.548   3.911 -0.6553  0.0297 -0.7090
 6384TP3     H119164   4.197   4.544   3.998  2.1893  2.3600  0.8988
 6384TP3     H219165   4.326   4.513   3.924 -0.1453  0.4493 -2.6838
 6385TP3      O19166   4.048   5.151   5.083 -0.0967 -1.0273  0.2522
 6385TP3     H119167   4.115   5.163   5.017  1.2158  0.3336  1.7471
 6385TP3     H219168   4.003   5.235   5.088  0.9515 -0.5211  2.2154
 6386TP3      O19169   4.172   5.669   4.083 -0.1776 -0.4902 -0.7371
 6386TP3     H119170   4.241   5.605   4.073  0.8357  0.4716 -0.1337
 6386TP3     H219171   4.181   5.728   4.008 -0.9937 -0.9347 -1.1998
 6387TP3      O19172   4.944   3.757   4.083  0.4405  0.2429  0.6616
 6387TP3     H119173   4.991   3.754   3.999 -0.4392  1.0944  0.1333
 6387TP3     H219174   4.967   3.674   4.125  0.7897 -0.2624 -0.4764
 6388TP3      O19175   0.156   4.430   4.246 -0.1467 -0.1141  0.1108
 6388TP3     H119176   0.084   4.412   4.186 -1.7065  1.1902  1.4791
 6388TP3     H219177   0.139   4.372   4.321  0.9182 -0.6571 -0.0549
 6389TP3      O19178   3.636   4.901   5.701  0.8012  0.0190 -0.7411
 6389TP3     H119179   3.610   4.983   5.659  0.3125  0.7500  0.9138
 6389TP3     H219180   3.666   4.927   5.787 -1.2085 -1.6906  0.5852
 6390TP3      O19181   4.387   4.820   4.097  0.0727 -0.1277  0.8118
 6390TP3     H119182   4.445   4.890   4.126  0.5450  0.0121 -0.4205
 6390TP3     H219183   4.444   4.747   4.076 -0.2163 -0.1451  0.0317
 6391TP3      O19184   4.058   5.478   5.473 -0.0006 -0.5180  0.3486
 6391TP3     H119185   3.992   5.425   5.517 -2.8795  3.4838  1.4348
 6391TP3     H219186   4.052   5.564   5.515  2.0344  1.6511 -3.2529
 6392TP3      O19187   0.162   3.029   0.083 -0.3155  0.3164 -0.3081
 6392TP3     H119188   0.140   3.109   0.036 -2.6334  0.1209  0.3147
 6392TP3     H219189   0.079   2.998   0.118  0.9677 -0.6352  2.2008
 6393TP3      O19190   4.528   4.127   3.962 -0.5119  0.8278 -0.2399
 6393TP3     H119191   4.585   4.152   3.889 -0.2336  0.9568  0.0202
 6393TP3     H219192   4.531   4.031   3.963 -1.8563  0.7400 -1.4568
 6394TP3      O19193   0.414   5.057   0.023  0.3439 -0.3474 -0.4902
 6394TP3     H119194   0.472   4.981   0.032  1.0176 -0.3612 -3.8808
 6394TP3     H219195   0.474   5.131   0.011 -0.3346  0.1215 -1.0116
 6395TP3      O19196   3.793   4.096   5.479  0.9286  0.0530 -0.4135
 6395TP3     H119197   3.795   4.190   5.493  1.7940  0.2041 -1.4546
 6395TP3     H219198   3.885   4.069   5.486  0.6316 -0.8118  0.4462
 6396TP3      O19199   3.119   4.727   5.266  0.2050  0.5611 -0.3215
 6396TP3     H119200   3.178   4.698   5.336  1.2980 -1.7631 -2.0818
 6396TP3     H219201   3.155   4.811   5.238  1.5535  0.1140 -0.0343
 6397TP3      O19202   5.561   3.365   4.901 -0.9795 -0.1281  0.6447
 6397TP3     H119203   5.591   3.351   4.811  0.7854 -1.3378  1.3676
 6397TP3     H219204   5.612   3.441   4.931 -1.3982  0.1293  0.7079
 6398TP3      O19205   4.674   3.601   4.072 -0.4339 -0.0869  1.0912
 6398TP3     H119206   4.758   3.618   4.114  1.0938 -0.5760 -1.5326
 6398TP3     H219207   4.663   3.674   4.010 -0.8397 -1.1346 -0.1202
 6399TP3      O19208   4.447   5.728   3.576  0.1655  0.8621  0.3549
 6399TP3     H119209   4.448   5.650   3.520  0.1524  0.8600  0.3574
 6399TP3     H219210   4.369   5.776   3.549 -0.6174  0.1790  1.3109
 6400TP3      O19211   4.690   5.983   4.637 -0.5523 -0.1373 -0.3422
 6400TP3     H119212   4.631   5.909   4.622 -0.5328 -0.1112 -0.5567
 6400TP3     H219213   4.756   5.948   4.697 -1.0658 -0.0151  0.3013
 6401TP3      O19214   4.500   3.358   3.487  0.4574 -0.2658 -0.3964
 6401TP3     H119215   4.527   3.287   3.429 -0.2932  0.9881 -2.3928
 6401TP3     H219216   4.438   3.317   3.548 -0.5568 -1.2074 -1.9990
 6402TP3      O19217   5.687   4.129   3.873  0.3509  0.5245 -0.2555
 6402TP3     H119218   5.636   4.141   3.793 -0.1406  1.6654  0.2036
 6402TP3     H219219   5.763   4.077   3.846  0.1936  0.8908 -1.4502
 6403TP3      O19220   0.036   3.354   5.457  0.4273  0.1226 -0.7389
 6403TP3     H119221  -0.057   3.366   5.473  0.4701 -1.1597  0.7499
 6403TP3     H219222   0.049   3.382   5.367 -1.4511  0.0244 -1.0768
 6404TP3      O19223   4.484   4.655   4.984 -0.5124 -0.7148  0.4401
 6404TP3     H119224   4.473   4.659   4.889 -2.1078  0.9207  0.6625
 6404TP3     H219225   4.408   4.606   5.015 -0.1380 -1.0102  0.9136
 6405TP3      O19226   4.693   0.363   5.008 -0.7566 -0.1219  0.5041
 6405TP3     H119227   4.752   0.433   5.035 -0.1012 -0.9497  1.2893
 6405TP3     H219228   4.729   0.284   5.048 -1.9943 -0.7716  0.4040
 6406TP3      O19229   4.446   4.601   5.852  0.2230 -0.7622 -0.5481
 6406TP3     H119230   4.402   4.666   5.907  3.9404  0.5567  1.1870
 6406TP3     H219231   4.406   4.517   5.877 -1.7939  0.3680  0.2374
 6407TP3      O19232   5.561   4.270   5.081  0.1926 -0.0929  0.0752
 6407TP3     H119233   5.582   4.229   4.997 -0.5266  0.2203 -0.2649
 6407TP3     H219234   5.489   4.330   5.061  0.9537  1.0468  0.6456
 6408TP3      O19235   3.944   0.164   5.765 -0.0853 -0.0185 -0.3036
 6408TP3     H119236   4.015   0.112   5.804  0.3007  0.0258 -0.9218
 6408TP3     H219237   3.977   0.254   5.766 -0.2319  0.0359 -0.3659
 6409TP3      O19238   4.001   3.743   5.357 -0.6265  0.8001 -0.3123
 6409TP3     H119239   4.058   3.810   5.396 -1.2512  2.4074 -2.0267
 6409TP3     H219240   3.945   3.791   5.296 -1.9701 -1.1298 -0.6983
 6410TP3      O19241   4.740   5.785   5.915  0.8751  0.9117  0.1465
 6410TP3     H119242   4.739   5.839   5.836  1.3398 -3.1441 -2.9736
 6410TP3     H219243   4.657   5.737   5.911  1.0963  0.3262  1.9288
 6411TP3      O19244   3.505   5.776   5.415 -0.2239 -0.2805 -0.4804
 6411TP3     H119245   3.556   5.857   5.426 -2.9957  1.3044  2.0675
 6411TP3     H219246   3.458   5.790   5.333  0.4358  0.0043 -0.8220
 6412TP3      O19247   5.872   4.643   0.431  0.1997  0.2215 -0.2602
 6412TP3     H119248   5.955   4.595   0.431 -0.0876 -0.3084  0.7787
 6412TP3     H219249   5.839   4.634   0.521 -0.0295  2.0987 -0.1145
 6413TP3      O19250   4.633   5.168   5.936 -0.1413 -0.1584 -0.2946
 6413TP3     H119251   4.691   5.097   5.961 -0.3408 -0.0648  0.4597
 6413TP3     H219252   4.546   5.129   5.935 -0.0144 -0.5017 -2.2107
 6414TP3      O19253   5.686   4.483   5.220  0.3066 -0.5570 -0.1816
 6414TP3     H119254   5.697   4.553   5.156  0.5283  1.1136  1.5813
 6414TP3     H219255   5.650   4.410   5.170  0.8514  0.5179 -2.2563
 6415TP3      O19256   4.497   4.506   0.502  0.1914  0.2176 -0.2960
 6415TP3     H119257   4.471   4.547   0.584 -0.1195 -0.1129 -0.2259
 6415TP3     H219258   4.524   4.579   0.446  1.7758  0.3317  0.5710
 6416TP3      O19259   5.072   4.311   5.843  0.0020 -0.1973 -0.7375
 6416TP3     H119260   5.041   4.354   5.922  0.2656  2.2174 -1.8721
 6416TP3     H219261   5.149   4.362   5.816  2.1748 -3.1332 -0.6151
 6417TP3      O19262   4.039   4.312   0.617 -0.0900  0.4219  0.6695
 6417TP3     H119263   4.062   4.307   0.525  0.4411  0.5457  0.7974
 6417TP3     H219264   4.005   4.401   0.629 -0.0223  0.4530  0.6267
 6418TP3      O19265   4.374   5.935   5.939  0.8304 -0.1379  0.6581
 6418TP3     H119266   4.351   5.896   6.023  1.2122 -0.8319  0.4469
 6418TP3     H219267   4.447   5.994   5.959 -0.8209  1.8410  1.2763
 6419TP3      O19268   4.742   5.700   5.459  0.2257 -0.0082  0.6405
 6419TP3     H119269   4.772   5.707   5.550  2.7841 -1.3359 -0.0316
 6419TP3     H219270   4.689   5.620   5.458 -1.6388  1.1250  1.3257
 6420TP3      O19271   3.230   0.023   5.227 -0.4486  0.2095 -0.2273
 6420TP3     H119272   3.161   0.020   5.161 -0.8216 -1.9757  0.1639
 6420TP3     H219273   3.301  -0.029   5.190 -0.1798  0.0094  0.5431
 6421TP3      O19274   4.359   4.074   5.713 -0.7430 -0.3168  0.2076
 6421TP3     H119275   4.368   4.098   5.806  3.0556  1.4874 -0.4518
 6421TP3     H219276   4.407   3.992   5.704  2.6076  1.5635 -0.7029
 6422TP3      O19277   5.701   4.977  -0.000  0.3480  0.1298  0.0457
 6422TP3     H119278   5.740   5.035   0.066  0.0442 -0.5573  0.8500
 6422TP3     H219279   5.642   5.033  -0.050 -0.7447  0.3081  1.4864
 6423TP3      O19280   4.363   3.528   5.712  0.0658  0.1682  0.6882
 6423TP3     H119281   4.416   3.607   5.715 -1.5594  1.3091  0.5627
 6423TP3     H219282   4.309   3.533   5.791 -0.1684 -0.7477  0.5989
 6424TP3      O19283   5.232   3.981   5.177 -0.1486  0.1791 -0.3904
 6424TP3     H119284   5.185   3.987   5.260 -1.0458  0.0059 -0.8806
 6424TP3     H219285   5.324   3.990   5.202 -0.5170  2.6502  0.3635
 6425TP3      O19286   4.837   4.850   5.941  0.5109  0.1155 -0.2635
 6425TP3     H119287   4.747   4.856   5.908 -0.0970 -4.1681  0.0412
 6425TP3     H219288   4.889   4.832   5.863  0.8794  0.8995 -0.2081
 6426TP3      O19289   3.442   5.241   5.294 -0.4955  0.4535  0.1623
 6426TP3     H119290   3.436   5.333   5.268 -0.7298 -0.0394 -1.6984
 6426TP3     H219291   3.536   5.224   5.299 -0.4253  0.4761 -0.8240
 6427TP3      O19292   5.379   0.157   5.442 -0.1991  0.4690  0.4043
 6427TP3     H119293   5.307   0.104   5.409 -0.2163  1.3785 -1.1235
 6427TP3     H219294   5.407   0.113   5.522 -0.8086 -1.2955 -0.3135
 6428TP3      O19295   5.627   4.323   0.168 -0.7213  0.4665 -0.2778
 6428TP3     H119296   5.663   4.350   0.084 -1.5183  2.2538 -0.0811
 6428TP3     H219297   5.676   4.374   0.232 -1.7648  0.9225  0.1706
 6429TP3      O19298   4.266   3.311   0.480 -0.1303  0.3069 -0.1550
 6429TP3     H119299   4.243   3.315   0.388  0.0540  0.5366 -0.1908
 6429TP3     H219300   4.193   3.352   0.526 -1.0861 -1.3847 -0.0470
 6430TP3      O19301   3.804   4.611   5.765  0.1591 -0.6374 -0.4352
 6430TP3     H119302   3.744   4.578   5.697  1.3284 -1.5098 -1.0648
 6430TP3     H219303   3.746   4.634   5.838 -1.1161  0.1569 -1.6415
 6431TP3      O19304   3.969   4.526   0.071  0.2901  0.0870 -0.1887
 6431TP3     H119305   3.888   4.537   0.120  1.0632  0.0652  1.1483
 6431TP3     H219306   3.952   4.567  -0.014 -0.6723  1.3011  0.5606
 6432TP3      O19307   3.232   3.707   0.057  0.2795 -0.6589  0.2174
 6432TP3     H119308   3.226   3.693  -0.038 -1.6387  0.9238  0.0207
 6432TP3     H219309   3.268   3.795   0.066 -1.2910 -0.0313  0.8383
 6433TP3      O19310   4.397   4.586   4.712 -0.3324  0.5089 -0.2972
 6433TP3     H119311   4.339   4.524   4.756 -0.6173  0.8709 -0.1571
 6433TP3     H219312   4.368   4.586   4.621 -1.1456  1.3584 -0.0477
 6434TP3      O19313   5.522   4.481   5.446 -0.3930 -0.2207 -0.1065
 6434TP3     H119314   5.573   4.468   5.366  0.0873  0.4998  0.0744
 6434TP3     H219315   5.526   4.397   5.491  1.1468 -0.0249  0.1807
 6435TP3      O19316   3.412   5.939   5.902  0.0939 -0.4998 -0.2883
 6435TP3     H119317   3.392   5.929   5.995 -0.0318 -2.4662 -0.4772
 6435TP3     H219318   3.363   6.016   5.875  0.0033  0.0148  1.2327
 6436TP3      O19319   4.117   4.621   5.532  0.3350 -0.4633  0.1812
 6436TP3     H119320   4.051   4.688   5.550  0.3336 -0.3041 -0.3796
 6436TP3     H219321   4.199   4.660   5.561  0.0816 -0.9906  1.6577
 6437TP3      O19322   5.746   3.046   5.982  0.7195  0.3417 -0.0544
 6437TP3     H119323   5.806   3.092   5.922  2.5160  0.3004  1.6276
 6437TP3     H219324   5.802   3.015   6.053 -1.0820 -1.0970  0.8178
 6438TP3      O19325   4.640   4.079   0.344  0.2877 -0.2148 -0.1357
 6438TP3     H119326   4.612   3.990   0.362 -3.1951  0.4558 -1.3226
 6438TP3     H219327   4.696   4.072   0.266 -2.2471 -1.2446 -1.9953
 6439TP3      O19328   4.456   0.153   0.950  0.0821 -0.1946  0.5933
 6439TP3     H119329   4.426   0.180   1.037  0.0439  1.6291  0.0466
 6439TP3     H219330   4.378   0.114   0.909 -0.5530  1.1040  0.5364
 6440TP3      O19331   4.893   5.102   5.655  0.0022 -0.0159 -0.3033
 6440TP3     H119332   4.921   5.120   5.565 -0.3288  0.9846 -0.2176
 6440TP3     H219333   4.939   5.021   5.678  2.9129  1.5141 -0.1733
 6441TP3      O19334   4.755   4.351  -0.017  0.6351  0.1834  0.2984
 6441TP3     H119335   4.735   4.387   0.070  2.6117 -2.1592  1.8490
 6441TP3     H219336   4.825   4.406  -0.050  0.1184  0.8711  0.3133
 6442TP3      O19337   5.423   5.112   5.277  0.3827 -0.1557 -0.1178
 6442TP3     H119338   5.365   5.187   5.288  3.4818  2.4045  0.2640
 6442TP3     H219339   5.375   5.052   5.220 -3.0443  1.1189  1.1829
 6443TP3      O19340   4.530   4.530   2.284  0.4187  0.1112 -0.1755
 6443TP3     H119341   4.507   4.622   2.272  1.8242  0.4759 -0.2480
 6443TP3     H219342   4.512   4.489   2.200 -0.0697  0.3448 -0.1876
 6444TP3      O19343   3.075   5.962   5.650  0.3376  0.0783 -0.5955
 6444TP3     H119344   3.070   5.929   5.560  2.2163  0.9158 -1.0432
 6444TP3     H219345   2.985   5.959   5.681 -0.4234  0.1810 -2.6511
 6445TP3      O19346   3.904   4.827   5.573 -0.6603  0.3310 -0.7167
 6445TP3     H119347   3.827   4.791   5.616 -0.6965  0.1113 -0.9596
 6445TP3     H219348   3.868   4.887   5.507 -0.5820  1.9136  0.6073
 6446TP3      O19349   3.567   4.656   5.613 -0.2792  0.2757  0.2144
 6446TP3     H119350   3.590   4.748   5.625  5.2755 -0.9683  2.1159
 6446TP3     H219351   3.522   4.632   5.694  0.3742  0.8263  0.7556
 6447TP3      O19352   4.332   4.947   5.482  0.7512  0.3251  0.4572
 6447TP3     H119353   4.355   4.855   5.492  3.1567  0.6669 -1.1046
 6447TP3     H219354   4.328   4.960   5.387  0.0962  1.7552  0.6604
 6448TP3      O19355   5.795   4.827   5.260  0.2179 -0.3538  0.4106
 6448TP3     H119356   5.785   4.910   5.213 -0.3857 -0.8865 -0.4162
 6448TP3     H219357   5.773   4.760   5.196 -1.1130 -1.0846  1.5819
 6449TP3      O19358   4.071   5.724   0.227 -0.7011 -0.1637 -0.0598
 6449TP3     H119359   4.020   5.734   0.147 -1.4281  0.3076  0.4581
 6449TP3     H219360   4.092   5.630   0.230 -1.1433 -0.2824 -0.5155
 6450TP3      O19361   4.386   5.066   5.923 -0.3325  0.4528  1.0116
 6450TP3     H119362   4.313   5.010   5.896  0.3087 -0.4175  1.0407
 6450TP3     H219363   4.362   5.096   6.010 -1.8322  2.2696  0.0327
 6451TP3      O19364   4.963   4.120   4.871  0.4053  0.6667  0.1125
 6451TP3     H119365   4.947   4.149   4.781  2.2091  0.1096 -0.4285
 6451TP3     H219366   4.877   4.094   4.903 -0.1994  0.3553 -1.6368
 6452TP3      O19367   3.908   4.106   5.757  0.5295 -0.3184  0.0380
 6452TP3     H119368   3.960   4.106   5.677 -1.6026  0.1391 -1.4421
 6452TP3     H219369   3.898   4.013   5.779 -0.3231 -0.5974 -1.3197
 6453TP3      O19370   3.521   4.567   5.365  0.5115  0.5566 -0.2250
 6453TP3     H119371   3.565   4.637   5.316  3.1732 -0.9332 -0.1844
 6453TP3     H219372   3.502   4.605   5.450 -2.4605  2.6110 -1.6351
 6454TP3      O19373   3.513   0.108   0.553 -0.2439 -0.4421 -0.0922
 6454TP3     H119374   3.539   0.075   0.639  0.7960  2.0045  0.6270
 6454TP3     H219375   3.588   0.090   0.497  1.4551  2.7249  0.9260
 6455TP3      O19376   4.138   5.440   0.993 -0.5075  0.5538 -0.1664
 6455TP3     H119377   4.054   5.417   0.952 -0.2654 -0.1261 -0.2947
 6455TP3     H219378   4.113   5.485   1.074 -0.9982  2.2745 -1.2226
 6456TP3      O19379   4.719   0.577   1.711 -0.2649 -0.5286 -0.0087
 6456TP3     H119380   4.759   0.656   1.675  0.0492 -1.0953 -0.9432
 6456TP3     H219381   4.787   0.538   1.765  1.1647 -2.3347 -2.8350
 6457TP3      O19382   5.035   1.142   1.339  0.0744  0.0114  0.4480
 6457TP3     H119383   5.102   1.092   1.293 -1.3053 -0.1514 -1.5142
 6457TP3     H219384   4.964   1.150   1.276 -0.6799  2.4976  1.5000
 6458TP3      O19385   5.132   5.267   1.233  0.3217  0.2627  0.0278
 6458TP3     H119386   5.102   5.240   1.146  0.1761  0.5006  0.0035
 6458TP3     H219387   5.054   5.303   1.275  0.0039 -1.2568  0.8320
 6459TP3      O19388   4.983   5.209   0.156  0.2568  0.2764  0.3129
 6459TP3     H119389   4.900   5.162   0.150  1.8759 -2.8969  0.7051
 6459TP3     H219390   5.021   5.181   0.239  2.3855  0.3774 -0.5582
 6460TP3      O19391   4.469   5.997   2.723  0.3613  0.5112 -0.1846
 6460TP3     H119392   4.557   5.994   2.760  0.4675 -0.3015 -0.4667
 6460TP3     H219393   4.411   5.976   2.797  0.6025 -1.5567 -0.5196
 6461TP3      O19394   5.109   0.074   0.725  0.2859  0.2694 -0.0158
 6461TP3     H119395   5.140   0.082   0.634 -1.5018 -0.6067 -0.7588
 6461TP3     H219396   5.080   0.162   0.748  2.6727  0.9720  0.4924
 6462TP3      O19397   4.624   0.823   0.487 -0.0078 -0.3536  0.1915
 6462TP3     H119398   4.686   0.764   0.443  0.1057 -1.7618  2.0995
 6462TP3     H219399   4.543   0.815   0.436  0.8646  0.1655 -1.3191
 6463TP3      O19400   3.763   0.049   2.115  0.7509 -0.6876 -0.2472
 6463TP3     H119401   3.750  -0.031   2.065  1.6206 -1.2158  0.3384
 6463TP3     H219402   3.727   0.118   2.060  1.4939 -1.2744 -1.5026
 6464TP3      O19403   4.404   0.155   0.520  0.1175 -0.2604 -0.0469
 6464TP3     H119404   4.376   0.116   0.438  2.5259 -0.7146 -0.7315
 6464TP3     H219405   4.411   0.082   0.581 -2.1157  0.1333  0.7792
 6465TP3      O19406   0.049   5.199   1.789  0.1490  0.6703 -0.1806
 6465TP3     H119407   0.030   5.161   1.703  0.7388 -1.2769  0.4851
 6465TP3     H219408  -0.032   5.244   1.815 -1.0035 -1.0874 -0.5788
 6466TP3      O19409   4.678   5.621   1.345 -0.1144 -0.7862 -0.1244
 6466TP3     H119410   4.626   5.558   1.295 -0.4852 -0.1692 -0.5341
 6466TP3     H219411   4.626   5.701   1.344  0.5503 -0.3447  0.0113
 6467TP3      O19412   3.947   0.229   2.391  0.2341 -0.3399 -0.3609
 6467TP3     H119413   3.895   0.150   2.383 -0.1242 -0.1112 -0.3366
 6467TP3     H219414   3.963   0.257   2.300  0.5171 -0.5398 -0.3731
 6468TP3      O19415   5.000   5.741   1.939  0.1303 -0.0349 -0.3687
 6468TP3     H119416   5.077   5.715   1.888 -0.8871  0.0381 -2.0256
 6468TP3     H219417   4.955   5.804   1.883 -3.2262 -2.9519 -1.2991
 6469TP3      O19418   3.754   5.515   0.481 -0.0125 -0.5777 -0.5909
 6469TP3     H119419   3.753   5.580   0.411  0.3776 -0.4001 -0.4314
 6469TP3     H219420   3.675   5.534   0.532 -0.1805 -0.5672 -0.8545
 6470TP3      O19421   4.723   0.040   0.558  0.1690 -0.1212 -0.2869
 6470TP3     H119422   4.707  -0.001   0.473 -1.8567  1.5474 -0.8047
 6470TP3     H219423   4.731   0.134   0.538 -2.0231  0.5422  1.4338
 6471TP3      O19424   3.909   5.696   2.018 -0.0039 -0.7110 -0.2197
 6471TP3     H119425   3.910   5.661   1.929  0.6287  0.6508 -0.7652
 6471TP3     H219426   4.000   5.691   2.047 -0.1524 -0.8455  0.2336
 6472TP3      O19427   5.388   0.729   0.946 -0.0730 -0.4170 -0.2432
 6472TP3     H119428   5.417   0.793   0.881 -0.6666  0.2124  0.1001
 6472TP3     H219429   5.298   0.754   0.966  0.1522 -0.5028  0.9377
 6473TP3      O19430   4.105   0.749   0.247 -0.1258 -0.2207 -0.2522
 6473TP3     H119431   4.075   0.840   0.247  1.1541  0.2434  1.2369
 6473TP3     H219432   4.028   0.698   0.273 -0.3032  0.6946  1.1294
 6474TP3      O19433   4.506   0.147   1.292  0.2741 -0.2356 -0.1131
 6474TP3     H119434   4.598   0.166   1.313  0.3239 -0.8579  0.2601
 6474TP3     H219435   4.500   0.052   1.295 -0.2432 -0.2284 -0.7675
 6475TP3      O19436   4.698   5.557   1.638  0.3427  0.1941 -0.2815
 6475TP3     H119437   4.790   5.564   1.661  0.0699 -1.6505  1.7631
 6475TP3     H219438   4.696   5.560   1.543  2.4065  0.9694 -0.3408
 6476TP3      O19439   5.212   5.520   1.377  0.1625 -0.2723 -0.5674
 6476TP3     H119440   5.123   5.552   1.393  0.2568 -0.1132 -0.3564
 6476TP3     H219441   5.226   5.455   1.446  0.7170  0.7038  0.2632
 6477TP3      O19442   4.121   0.712   1.681 -0.0811 -0.1971  0.0675
 6477TP3     H119443   4.198   0.758   1.649 -0.5470  0.2345 -0.4471
 6477TP3     H219444   4.056   0.722   1.611 -1.2919  1.1850  1.3209
 6478TP3      O19445   3.862   0.417   1.121 -0.2981  0.0731 -0.6978
 6478TP3     H119446   3.894   0.507   1.124 -1.4678  0.4968 -0.2167
 6478TP3     H219447   3.912   0.376   1.050  1.6733  0.5061  0.3811
 6479TP3      O19448   3.846   5.133   1.020 -0.7424 -0.2796 -0.4928
 6479TP3     H119449   3.846   5.225   0.994  1.5665 -0.0758 -0.0246
 6479TP3     H219450   3.938   5.106   1.012 -0.5285 -1.3327  3.3069
 6480TP3      O19451   4.146   4.915   0.146 -0.4004  0.2305  0.1965
 6480TP3     H119452   4.051   4.917   0.133 -0.1996 -1.6225 -2.3738
 6480TP3     H219453   4.158   4.861   0.223 -1.4415 -0.4959 -0.1219
 6481TP3      O19454   4.246   5.667   0.854  0.2149  0.3384  0.0246
 6481TP3     H119455   4.291   5.696   0.933  3.0684 -0.6329 -1.1273
 6481TP3     H219456   4.226   5.575   0.870 -1.7575  0.8041  0.6129
 6482TP3      O19457   5.076   5.862   1.425 -0.1384  0.1219  0.1422
 6482TP3     H119458   4.990   5.822   1.413 -0.9783  1.4934  1.3450
 6482TP3     H219459   5.091   5.859   1.519  0.7812  0.6337  0.0200
 6483TP3      O19460   4.902   5.736   0.556 -0.0544  0.3767 -0.1035
 6483TP3     H119461   4.813   5.707   0.539 -0.5291  1.1945  0.8553
 6483TP3     H219462   4.892   5.817   0.606  1.2133  1.3331 -1.3099
 6484TP3      O19463   4.466   5.399   0.472 -0.2193  0.0967 -0.0352
 6484TP3     H119464   4.381   5.419   0.511  0.3134  2.4199  0.1091
 6484TP3     H219465   4.458   5.430   0.381 -0.0047 -1.1604 -0.5104
 6485TP3      O19466   5.885   0.418   5.939  0.3374  0.2003 -0.4524
 6485TP3     H119467   5.867   0.450   6.027  1.5693 -0.1075 -0.0637
 6485TP3     H219468   5.824   0.465   5.883 -0.3240  0.5482  0.5394
 6486TP3      O19469   5.060   0.505   1.536  0.3096  0.3641  0.2924
 6486TP3     H119470   5.004   0.447   1.588 -2.3307 -0.4042 -3.0490
 6486TP3     H219471   5.058   0.468   1.448  3.8425  2.0163 -0.6671
 6487TP3      O19472   3.897   5.973   1.623  0.4126  0.4950 -0.0322
 6487TP3     H119473   3.953   6.015   1.688 -0.3271  1.5825 -0.0719
 6487TP3     H219474   3.903   5.880   1.643  1.2132  0.7028  0.7685
 6488TP3      O19475   4.587   5.079   0.794 -0.2683 -0.3970 -0.1732
 6488TP3     H119476   4.493   5.091   0.784  0.0731  1.6590 -1.7150
 6488TP3     H219477   4.624   5.108   0.710  1.8189  0.6214  1.0111
 6489TP3      O19478   4.124   0.347   5.970  0.4563 -0.2433  0.4628
 6489TP3     H119479   4.036   0.330   6.004  1.1271 -1.2086  1.8237
 6489TP3     H219480   4.155   0.261   5.941  0.5722  0.2677 -1.0566
 6490TP3      O19481   4.800   0.157   5.140  0.4878  0.3280  0.0226
 6490TP3     H119482   4.807   0.063   5.127  0.9114  0.0221  2.1244
 6490TP3     H219483   4.890   0.189   5.134  0.4410  0.4757  0.1066
 6491TP3      O19484   4.450   0.618   4.476  0.1990  0.5931  0.0436
 6491TP3     H119485   4.408   0.685   4.529 -0.3675 -0.5413  1.0773
 6491TP3     H219486   4.379   0.584   4.420  0.0272 -0.3848  0.8276
 6492TP3      O19487   0.321   5.054   1.822  0.3925 -0.6473  0.0983
 6492TP3     H119488   0.336   5.029   1.731  1.3933  0.6865 -0.1490
 6492TP3     H219489   0.233   5.091   1.823  1.1350  1.3251 -0.8584
 6493TP3      O19490   0.157   0.040   1.498 -0.4628  0.1374 -0.4883
 6493TP3     H119491   0.133   0.037   1.590 -0.0866 -0.7943 -0.4037
 6493TP3     H219492   0.168  -0.052   1.473  2.6085  0.4108 -0.6031
 6494TP3      O19493   4.243   5.844   1.433  0.2040  0.0995 -0.6918
 6494TP3     H119494   4.166   5.898   1.418 -0.4423 -0.4423  0.5257
 6494TP3     H219495   4.208   5.756   1.447  1.0614 -0.1789 -0.2261
 6495TP3      O19496   4.639   0.046   0.299  0.3012  0.8548  0.1742
 6495TP3     H119497   4.565   0.103   0.318 -0.3166  0.6007 -1.3049
 6495TP3     H219498   4.654   0.056   0.205 -0.0989 -1.6716 -0.2470
 6496TP3      O19499   4.820   0.328   4.616 -0.4894 -0.1233 -0.4575
 6496TP3     H119500   4.736   0.297   4.651 -1.9277  1.1837 -2.4929
 6496TP3     H219501   4.857   0.250   4.574 -0.2167 -0.9231  1.1791
 6497TP3      O19502   4.902   0.543   0.805 -0.3968  0.4651  0.0528
 6497TP3     H119503   4.942   0.585   0.729 -0.3064 -1.0404 -0.7786
 6497TP3     H219504   4.962   0.561   0.878 -0.2463  1.5284 -0.3240
 6498TP3      O19505   5.702   5.879   0.737 -0.4640  0.6246  0.0308
 6498TP3     H119506   5.684   5.800   0.686 -1.5902  0.4508  0.6461
 6498TP3     H219507   5.617   5.902   0.774  0.5129 -0.0701  2.9778
 6499TP3      O19508   3.934   4.688   3.005 -0.0774  0.2144  0.4521
 6499TP3     H119509   3.857   4.710   2.952 -1.1848 -2.9071  0.5523
 6499TP3     H219510   4.006   4.735   2.963 -1.6795  1.6223 -0.8783
 6500TP3      O19511   3.529   5.323   2.899  0.0808 -0.3547 -0.5165
 6500TP3     H119512   3.605   5.299   2.846  1.4197 -0.6127  1.4134
 6500TP3     H219513   3.458   5.268   2.866  1.6908 -2.9941  0.1094
 6501TP3      O19514   0.007   0.114   1.841  0.8008  0.2671  0.1738
 6501TP3     H119515  -0.023   0.131   1.931 -2.3822 -1.7869 -0.3451
 6501TP3     H219516   0.054   0.031   1.847 -2.5169 -1.8225 -0.4265
 6502TP3      O19517   4.654   0.372   2.980  0.2220  0.6757  0.4802
 6502TP3     H119518   4.587   0.392   3.046 -0.4390 -0.4463  0.1741
 6502TP3     H219519   4.737   0.395   3.022 -0.4032  4.3500  0.0734
 6503TP3      O19520   0.398   0.407   3.307  0.0519 -0.1465 -0.2717
 6503TP3     H119521   0.431   0.321   3.332 -0.7833 -0.1962  0.6933
 6503TP3     H219522   0.349   0.438   3.383  0.7756  1.4196 -0.3897
 6504TP3      O19523   5.403   0.126   4.077  0.5148 -0.4723  0.4333
 6504TP3     H119524   5.355   0.186   4.135  1.0992 -0.1644  0.6089
 6504TP3     H219525   5.341   0.107   4.007  0.7403  1.4152 -0.3558
 6505TP3      O19526   4.143   5.452   2.604  0.1453 -0.3680 -0.4962
 6505TP3     H119527   4.193   5.432   2.683 -0.1652 -0.1151 -0.2330
 6505TP3     H219528   4.206   5.443   2.533  0.1540 -1.7011 -0.3383
 6506TP3      O19529   3.805   0.139   3.108  0.4889  0.7020 -0.0064
 6506TP3     H119530   3.821   0.083   3.184 -0.8203 -0.8227 -0.7874
 6506TP3     H219531   3.887   0.185   3.094  1.2322 -0.1295  1.4162
 6507TP3      O19532   4.400   5.685   3.155 -0.0046 -0.3987 -0.4035
 6507TP3     H119533   4.407   5.775   3.125 -1.0063 -0.1566  0.0411
 6507TP3     H219534   4.378   5.635   3.076  0.0423 -0.1782 -0.5566
 6508TP3      O19535   4.758   5.608   3.197  0.3915  0.6506  1.3252
 6508TP3     H119536   4.760   5.513   3.186  1.0005  0.6294  1.5820
 6508TP3     H219537   4.761   5.621   3.292  0.9911  0.9427  1.2653
 6509TP3      O19538   4.992   0.013   2.656 -0.3022 -0.4339 -0.2239
 6509TP3     H119539   4.950   0.057   2.581 -0.3524  1.3751  0.8026
 6509TP3     H219540   4.926   0.017   2.725  1.1371  1.6328  1.1316
 6510TP3      O19541   4.038   0.383   2.760  0.0524  0.5880  0.4908
 6510TP3     H119542   4.074   0.317   2.700  0.3960  0.4455  0.8500
 6510TP3     H219543   3.981   0.437   2.705 -0.8327 -0.4611  0.3295
 6511TP3      O19544   5.368   5.793   3.445  0.2917  0.1486 -0.2125
 6511TP3     H119545   5.393   5.868   3.500 -1.7387  1.8216 -1.4131
 6511TP3     H219546   5.393   5.717   3.497  1.5652  1.6288  1.5052
 6512TP3      O19547   4.660   5.101   3.328 -0.2434 -0.3815 -0.0845
 6512TP3     H119548   4.752   5.075   3.334 -0.1925 -0.4068 -0.8468
 6512TP3     H219549   4.614   5.019   3.308 -0.1186  0.0163 -2.2216
 6513TP3      O19550   4.617   0.176   2.259 -0.1026 -0.3030  0.3455
 6513TP3     H119551   4.586   0.206   2.173  3.1112  1.7618 -0.3123
 6513TP3     H219552   4.555   0.213   2.321 -1.9872 -1.0632 -0.9946
 6514TP3      O19553   4.460   5.730   4.280 -0.2292 -0.0151 -0.2606
 6514TP3     H119554   4.419   5.643   4.272 -0.2415  0.1512 -3.2578
 6514TP3     H219555   4.547   5.719   4.241  1.1241  0.6081  2.3700
 6515TP3      O19556   0.055   5.728   4.036  0.3105  0.4262 -0.0058
 6515TP3     H119557   0.042   5.819   4.007 -1.0320  0.6623  1.2098
 6515TP3     H219558   0.134   5.731   4.089 -0.4284  1.1748  1.0881
 6516TP3      O19559   4.386   0.380   2.132 -0.8298  0.3537  0.9458
 6516TP3     H119560   4.341   0.382   2.217  0.1629  0.8221  1.4750
 6516TP3     H219561   4.332   0.437   2.076 -0.7908  1.0841  1.6294
 6517TP3      O19562   4.728   5.307   1.024 -0.1662  0.1368  0.3523
 6517TP3     H119563   4.646   5.269   1.055 -0.9699  2.0452  0.7314
 6517TP3     H219564   4.702   5.366   0.953  0.9074  0.5286  0.2644
 6518TP3      O19565   4.813   4.969   2.313  0.0974  0.4723  0.0875
 6518TP3     H119566   4.782   4.965   2.222  1.6209  2.5811 -0.6133
 6518TP3     H219567   4.736   4.950   2.366 -0.7784 -1.0620 -1.6191
 6519TP3      O19568   3.617   0.549   2.952 -0.3168 -0.5383 -0.1583
 6519TP3     H119569   3.634   0.562   3.045 -1.6233  0.9391 -0.0803
 6519TP3     H219570   3.593   0.456   2.945  1.3118 -1.0605  0.6897
 6520TP3      O19571   4.857   0.132   2.461 -0.4225  0.3194  0.5788
 6520TP3     H119572   4.781   0.186   2.440 -0.3609  0.7252  1.3760
 6520TP3     H219573   4.930   0.175   2.417 -0.8379 -0.8310 -1.3522
 6521TP3      O19574   4.298   5.931   2.052 -0.1253  0.4063 -0.3855
 6521TP3     H119575   4.226   5.910   2.111  0.8650 -1.1643  0.3161
 6521TP3     H219576   4.261   5.919   1.964 -0.2189 -2.4264 -0.0482
 6522TP3      O19577   4.386   5.929   2.992 -0.1155  0.1046 -0.1758
 6522TP3     H119578   4.291   5.937   2.985  0.1478  2.8121 -2.6695
 6522TP3     H219579   4.410   5.990   3.061 -0.0864  0.9195 -0.8894
 6523TP3      O19580   5.439   5.547   3.585  0.3083 -0.5089  0.2384
 6523TP3     H119581   5.365   5.488   3.572  0.0958 -0.0464 -0.7142
 6523TP3     H219582   5.517   5.492   3.574  0.1190 -0.9318  0.9461
 6524TP3      O19583   4.699   0.600   3.848  0.3627  0.4137 -0.2980
 6524TP3     H119584   4.641   0.668   3.882 -1.2991 -1.5321  1.0211
 6524TP3     H219585   4.781   0.613   3.895  0.2646  1.7978 -0.4688
 6525TP3      O19586   3.601   5.797   3.349 -0.1828 -0.2237 -0.4678
 6525TP3     H119587   3.599   5.839   3.263  1.3872  3.6009  1.1463
 6525TP3     H219588   3.682   5.745   3.349 -0.3733 -0.5438 -1.3644
 6526TP3      O19589   4.182   4.928   1.665 -0.3962 -0.5572 -0.4685
 6526TP3     H119590   4.193   4.893   1.753 -0.9071  1.3747  0.4255
 6526TP3     H219591   4.270   4.927   1.627 -0.2531 -1.8762 -0.1669
 6527TP3      O19592   3.811   5.656   2.350  0.1319 -0.5663 -0.6101
 6527TP3     H119593   3.738   5.631   2.294  0.4043  0.9727 -1.7119
 6527TP3     H219594   3.801   5.602   2.428 -3.6062  1.2937  0.3836
 6528TP3      O19595   4.136   4.852   1.232 -0.3224  0.6027 -0.4019
 6528TP3     H119596   4.219   4.845   1.185  0.2559 -0.2089  0.6898
 6528TP3     H219597   4.141   4.785   1.300 -2.2401 -0.0449 -0.8215
 6529TP3      O19598   4.693   0.813   2.368 -0.3715  0.0415  0.0594
 6529TP3     H119599   4.641   0.855   2.299  1.1559  1.0407 -0.5499
 6529TP3     H219600   4.633   0.750   2.409 -1.4000 -0.3894 -1.9953
 6530TP3      O19601   0.109   5.065   4.328  0.5582 -0.5421  0.2940
 6530TP3     H119602   0.103   5.083   4.234 -1.5217  0.8393  0.6166
 6530TP3     H219603   0.192   5.018   4.339  1.0068 -0.4323 -2.1672
 6531TP3      O19604   4.134   0.649   2.129 -0.3199  1.1899 -0.3167
 6531TP3     H119605   4.102   0.739   2.141 -0.9832  0.7854  1.2867
 6531TP3     H219606   4.172   0.648   2.041 -0.6041  2.9433 -0.4933
 6532TP3      O19607   5.342   5.813   2.719  0.6363  1.1098  0.2823
 6532TP3     H119608   5.295   5.760   2.655 -0.1837 -1.0653  2.5431
 6532TP3     H219609   5.397   5.871   2.666 -2.1758  1.5672 -2.4339
 6533TP3      O19610   5.215   5.505   2.852 -0.4131 -0.0488  0.8847
 6533TP3     H119611   5.142   5.444   2.845 -1.7857  1.6473 -1.2629
 6533TP3     H219612   5.174   5.591   2.864  0.9850  1.2339 -2.2659
 6534TP3      O19613   4.692   5.535   2.318 -1.4311  0.1171  0.5660
 6534TP3     H119614   4.657   5.452   2.352  0.4117 -0.2454  1.6739
 6534TP3     H219615   4.732   5.577   2.393 -0.4779  1.0347 -0.4142
 6535TP3      O19616   3.536   5.381   3.454 -0.4313 -0.2660  0.4477
 6535TP3     H119617   3.540   5.389   3.358  1.6400  0.6120  0.5607
 6535TP3     H219618   3.442   5.375   3.473 -1.0252  1.6175 -1.4834
 6536TP3      O19619   4.062  -0.003   2.182  0.2223 -0.3577 -0.1870
 6536TP3     H119620   4.097   0.085   2.194 -0.9081 -0.1527  2.3459
 6536TP3     H219621   3.977   0.010   2.142 -0.3669 -0.1525  1.0635
 6537TP3      O19622   4.453   5.915   2.344  0.6314  0.1836  0.2227
 6537TP3     H119623   4.521   5.850   2.363  0.0525 -0.7609 -0.7642
 6537TP3     H219624   4.484   5.961   2.266 -0.5835 -1.4518 -1.3207
 6538TP3      O19625   5.031   5.424   1.925  0.1631  0.3888 -0.2525
 6538TP3     H119626   5.035   5.497   1.986  2.0204  0.3814 -0.3000
 6538TP3     H219627   5.117   5.382   1.931  0.6568  0.7080 -3.2269
 6539TP3      O19628   5.183   0.434   3.081  0.3640 -0.0231 -0.5259
 6539TP3     H119629   5.233   0.353   3.081  0.1590 -0.2173  1.6814
 6539TP3     H219630   5.245   0.501   3.109  0.5967  0.6959 -2.5562
 6540TP3      O19631   5.980   5.674   3.286  0.2817  0.0001  0.0541
 6540TP3     H119632   5.886   5.685   3.277  0.2563  0.2157  0.5066
 6540TP3     H219633   6.000   5.713   3.371  0.7156 -0.4387  0.1586
 6541TP3      O19634   5.248   5.777   3.182 -0.4637 -0.4681  0.2858
 6541TP3     H119635   5.171   5.817   3.141 -1.3327 -2.2613  0.0571
 6541TP3     H219636   5.240   5.800   3.274 -3.2636 -3.3692  0.9607
 6542TP3      O19637   3.850   5.486   3.459 -0.1165  0.0106 -0.0378
 6542TP3     H119638   3.793   5.413   3.480 -0.7747 -0.1820 -2.2011
 6542TP3     H219639   3.807   5.529   3.384 -0.2326  3.1705  1.6545
 6543TP3      O19640   5.395   5.724   2.242 -0.4798 -0.0089  0.5815
 6543TP3     H119641   5.387   5.658   2.173 -1.9861  1.1614 -0.4337
 6543TP3     H219642   5.486   5.719   2.269 -0.2522 -1.6355 -0.3392
 6544TP3      O19643   5.124   5.389   2.251 -0.1424  0.5638 -0.2656
 6544TP3     H119644   5.089   5.460   2.304  0.0862 -0.6485  1.6110
 6544TP3     H219645   5.218   5.403   2.252  0.0468 -0.5539  1.4071
 6545TP3      O19646   4.836   0.433   2.213  0.1501 -0.3582  0.3045
 6545TP3     H119647   4.859   0.376   2.139  1.1075 -1.2713  1.2773
 6545TP3     H219648   4.747   0.406   2.237  0.2860 -0.8736  0.2395
 6546TP3      O19649   4.178   0.154   4.130 -0.1834 -0.2165  0.0904
 6546TP3     H119650   4.226   0.071   4.128  1.6278  0.8290 -1.6689
 6546TP3     H219651   4.241   0.218   4.163 -1.5174  0.5623  1.2758
 6547TP3      O19652   4.205   0.170   4.456 -0.3095  0.0153  0.1201
 6547TP3     H119653   4.141   0.117   4.408 -0.9393  1.2174 -0.3995
 6547TP3     H219654   4.269   0.106   4.488 -3.0877 -1.6689  2.9640
 6548TP3      O19655   4.462   5.523   3.387  0.0984  0.0067  0.1325
 6548TP3     H119656   4.432   5.438   3.355 -2.3660  0.5416  0.8391
 6548TP3     H219657   4.463   5.579   3.310  0.9166 -0.4199 -0.1814
 6549TP3      O19658   3.408   6.027   4.837 -0.5097 -0.2127  0.6148
 6549TP3     H119659   3.503   6.033   4.829 -0.2736 -0.8903  2.3453
 6549TP3     H219660   3.391   5.933   4.845 -1.0405 -0.0108  2.5360
 6550TP3      O19661   4.716   0.715   4.473  0.2139 -0.1381 -0.2521
 6550TP3     H119662   4.749   0.681   4.390  1.2099  0.7304 -0.2277
 6550TP3     H219663   4.622   0.695   4.471  0.2985 -0.5142 -1.3821
 6551TP3      O19664   4.720   5.533   4.884  0.1935  0.3678  0.0190
 6551TP3     H119665   4.747   5.585   4.808 -0.1049  0.8916  0.2718
 6551TP3     H219666   4.626   5.523   4.874 -0.0343  1.4248  0.9235
 6552TP3      O19667   5.513   5.771   3.814 -0.1631 -0.4607  0.5295
 6552TP3     H119668   5.580   5.718   3.771 -0.7352 -1.6644  1.0554
 6552TP3     H219669   5.447   5.707   3.842 -1.0132  0.5729  0.9517
 6553TP3      O19670   4.126   5.769   5.279  0.5845  0.1377 -0.2126
 6553TP3     H119671   4.169   5.795   5.361 -0.2539  0.9532 -0.0207
 6553TP3     H219672   4.073   5.844   5.255 -2.4642 -1.5453  0.7096
 6554TP3      O19673   4.827   0.587   5.117 -0.6998  0.3590  0.0259
 6554TP3     H119674   4.830   0.627   5.030 -0.0517 -1.3231 -0.7787
 6554TP3     H219675   4.916   0.596   5.151 -0.5494 -0.3651 -0.1604
 6555TP3      O19676   4.899   5.758   3.978  0.2481  0.1743 -0.2065
 6555TP3     H119677   4.857   5.831   4.025  0.1782  0.5758 -0.8784
 6555TP3     H219678   4.993   5.773   3.990  0.2256 -0.2652  0.6058
 6556TP3      O19679   4.388   0.441   3.691  0.0506  0.0687  0.1990
 6556TP3     H119680   4.367   0.526   3.652 -1.0405 -0.3064 -0.0595
 6556TP3     H219681   4.307   0.391   3.684  0.4212 -0.6921  1.1602
 6557TP3      O19682   2.775   0.578   5.160  0.1965 -0.4078  0.4748
 6557TP3     H119683   2.760   0.617   5.074  1.3088  1.0771  0.8970
 6557TP3     H219684   2.694   0.592   5.209 -0.0845 -0.3603 -0.0090
 6558TP3      O19685   5.709   0.283   4.852 -0.5204 -0.6238  0.1835
 6558TP3     H119686   5.707   0.368   4.809 -2.0551 -1.3778 -1.3873
 6558TP3     H219687   5.797   0.249   4.835 -1.0709 -0.9495 -2.6901
 6559TP3      O19688   4.828   0.860   5.665 -0.0656 -0.1935 -0.1792
 6559TP3     H119689   4.799   0.830   5.751 -0.7844  0.0312 -0.3414
 6559TP3     H219690   4.899   0.922   5.684  0.4985 -0.9375  0.2075
 6560TP3      O19691   4.572   5.916   4.013  0.2535  0.6461 -0.0251
 6560TP3     H119692   4.616   5.936   4.095  0.1494  2.1156 -0.3003
 6560TP3     H219693   4.602   5.983   3.952 -2.2982  1.7380 -0.2333
 6561TP3      O19694   5.356   0.053   0.157 -0.0812  0.1623 -0.2192
 6561TP3     H119695   5.290   0.105   0.203  0.3183  2.1197 -1.7609
 6561TP3     H219696   5.437   0.068   0.206 -0.1974  0.0705  0.0016
 6562TP3      O19697   5.189   5.913   5.579 -0.1515  0.1576  0.0428
 6562TP3     H119698   5.218   5.863   5.503  0.7800  0.3980  0.2277
 6562TP3     H219699   5.095   5.896   5.585  0.1018 -1.3784 -0.0427
 6563TP3      O19700   4.226   0.432   4.912  0.3288 -0.0148 -0.4244
 6563TP3     H119701   4.205   0.447   4.820  2.4692  0.1782 -0.9277
 6563TP3     H219702   4.314   0.467   4.923  0.4766 -0.8479  1.4927
 6564TP3      O19703   4.016   5.895   3.781  0.4809  0.8988 -0.0016
 6564TP3     H119704   3.998   5.840   3.857  0.4858 -1.0274 -1.3022
 6564TP3     H219705   4.107   5.876   3.758 -0.0542  0.0021 -1.5405
 6565TP3      O19706   4.630   5.552   4.513 -0.2269  0.0431  0.1135
 6565TP3     H119707   4.654   5.577   4.424 -0.6360 -1.5634 -0.4945
 6565TP3     H219708   4.703   5.496   4.543 -0.6201 -0.3551  0.3447
 6566TP3      O19709   4.301   0.032   3.825 -0.2461  0.2756  0.0289
 6566TP3     H119710   4.354  -0.037   3.864 -1.1843 -0.4255  0.1024
 6566TP3     H219711   4.250   0.067   3.897 -1.4817 -0.5596 -0.4000
 6567TP3      O19712   5.817   5.567   3.973 -0.4954  0.1565  0.2887
 6567TP3     H119713   5.842   5.476   3.988  1.2935  0.1000 -2.3502
 6567TP3     H219714   5.888   5.618   4.013  0.2733  0.2365 -1.1238
 6568TP3      O19715   4.360   0.528   3.952 -0.4760  0.6792 -0.6523
 6568TP3     H119716   4.272   0.492   3.963  0.2393 -0.5322  1.7019
 6568TP3     H219717   4.392   0.489   3.871 -1.2852 -0.6483 -0.3582
 6569TP3      O19718   4.910   0.121   3.942 -0.0899 -0.0854 -0.1634
 6569TP3     H119719   4.995   0.099   3.902 -0.4980  0.2522 -1.2652
 6569TP3     H219720   4.910   0.217   3.945 -0.4776 -0.0813 -0.2823
 6570TP3      O19721   5.282   5.326   5.599  0.0577 -0.2582 -0.4129
 6570TP3     H119722   5.345   5.345   5.669  1.3829 -0.0185 -1.6427
 6570TP3     H219723   5.267   5.232   5.605  1.0583 -0.4287 -0.5365
 6571TP3      O19724   5.022   0.443   5.340 -0.1456  0.2004  0.1473
 6571TP3     H119725   5.071   0.513   5.383 -0.0109 -0.5718  1.2793
 6571TP3     H219726   5.057   0.442   5.250  0.8834  0.6178  0.5245
 6572TP3      O19727   3.700   5.586   5.464  0.1430  0.0868  0.1165
 6572TP3     H119728   3.635   5.657   5.464  0.1220  0.1262  2.6049
 6572TP3     H219729   3.784   5.631   5.464  0.1410  0.0887  0.5249
 6573TP3      O19730   5.519   5.483   5.292 -1.1210  0.0575  0.8261
 6573TP3     H119731   5.584   5.423   5.328 -1.5924 -1.7735 -1.1648
 6573TP3     H219732   5.437   5.433   5.290 -1.8082  1.1466  0.1694
 6574TP3      O19733   4.361   0.756   3.753  0.2699 -0.0944  0.3965
 6574TP3     H119734   4.389   0.706   3.830  0.6290  0.5143  0.6702
 6574TP3     H219735   4.431   0.820   3.739 -1.2882  2.0349  1.6027
 6575TP3      O19736   0.050   0.005   3.998 -0.1635 -0.1757 -0.3084
 6575TP3     H119737   0.093   0.060   3.933  0.3625 -0.3712 -0.1308
 6575TP3     H219738  -0.037   0.045   4.010  0.3647  0.8847  0.1419
 6576TP3      O19739   4.943   0.239   4.278  0.0861 -0.0458  0.0400
 6576TP3     H119740   4.913   0.192   4.356 -1.1630  0.4093 -0.1610
 6576TP3     H219741   4.925   0.331   4.296  2.4627  0.4365  0.3990
 6577TP3      O19742   5.632   5.764   5.272  0.2127 -0.1734 -0.4769
 6577TP3     H119743   5.594   5.676   5.269 -0.1199  0.0101 -2.4429
 6577TP3     H219744   5.557   5.823   5.264  0.3741  0.3496  1.3697
 6578TP3      O19745   3.983   0.194   3.369 -0.2687  0.5288 -0.0048
 6578TP3     H119746   3.952   0.275   3.328 -3.5305 -0.6288 -0.1572
 6578TP3     H219747   3.953   0.200   3.460  0.1871 -0.1764  0.1974
 6579TP3      O19748   0.122   5.407   3.849 -0.1965  0.6629 -0.8750
 6579TP3     H119749   0.146   5.411   3.942  0.3305 -1.2343 -0.9052
 6579TP3     H219750   0.178   5.473   3.807 -0.0239  1.1239  0.0500
 6580TP3      O19751   0.317   0.808   4.491  0.4907  0.4106  0.0525
 6580TP3     H119752   0.268   0.839   4.415  1.5325  2.3659  0.1280
 6580TP3     H219753   0.255   0.814   4.563 -0.6585 -1.9012 -0.6223
 6581TP3      O19754   5.744   5.913   5.050 -0.1149 -0.3100  0.1536
 6581TP3     H119755   5.762   5.862   4.971 -1.0166  0.3093 -0.4734
 6581TP3     H219756   5.712   5.848   5.113  2.0933 -1.0650  0.5698
 6582TP3      O19757   4.267   5.780   5.040 -0.5321  0.2404  0.1046
 6582TP3     H119758   4.222   5.766   5.124 -0.3260 -0.9714  0.0396
 6582TP3     H219759   4.359   5.785   5.064 -0.6305  2.4083  0.2017
 6583TP3      O19760   5.005   0.196   3.591 -0.3822  0.5052  0.1376
 6583TP3     H119761   5.096   0.215   3.614 -0.6689  0.8003  1.0808
 6583TP3     H219762   4.999   0.101   3.593 -0.2186  0.5006  0.5934
 6584TP3      O19763   3.738   5.799   3.748  0.3544  0.1115 -0.0790
 6584TP3     H119764   3.811   5.773   3.805  0.2946 -0.8730 -0.4323
 6584TP3     H219765   3.681   5.722   3.746 -1.7442  1.4798  1.7669
 6585TP3      O19766   0.688   0.638   4.955 -0.2922  0.0065  0.0873
 6585TP3     H119767   0.761   0.624   5.015 -0.4776 -1.2143  0.0487
 6585TP3     H219768   0.665   0.731   4.966  1.3957  0.4784 -0.0726
 6586TP3      O19769   5.342   5.585   5.070  0.4121  0.2234 -0.5694
 6586TP3     H119770   5.333   5.669   5.026 -1.5635  0.4304  0.1036
 6586TP3     H219771   5.331   5.605   5.163 -2.7476 -1.0042 -0.5569
 6587TP3      O19772   5.562   0.889   4.363 -0.2207 -0.3338 -0.3941
 6587TP3     H119773   5.487   0.845   4.322 -0.1234 -2.2250  1.2772
 6587TP3     H219774   5.635   0.872   4.304 -0.3501 -1.8408 -0.1665
 6588TP3      O19775   5.626   5.582   4.202 -0.2556  0.1786  0.3234
 6588TP3     H119776   5.679   5.517   4.248 -1.2075 -0.1619  0.9552
 6588TP3     H219777   5.687   5.623   4.140  0.4488 -1.0462  0.1817
 6589TP3      O19778   3.728   4.879   5.333  0.2353  0.2852  0.1715
 6589TP3     H119779   3.740   4.799   5.282 -0.4686  1.3799 -1.8455
 6589TP3     H219780   3.803   4.934   5.310  1.2614 -0.1127  2.3269
 6590TP3      O19781   4.696   5.836   3.646 -0.6418  0.4889  0.4086
 6590TP3     H119782   4.674   5.892   3.721  0.8193 -0.3403  1.5080
 6590TP3     H219783   4.612   5.800   3.617 -1.1115 -0.2625  2.5427
 6591TP3      O19784   0.254   5.802   3.341 -0.1441 -0.0138 -0.2183
 6591TP3     H119785   0.274   5.859   3.415  1.3634  1.4034 -1.6315
 6591TP3     H219786   0.184   5.848   3.294 -1.1683 -0.9584  0.3437
 6592TP3      O19787   5.553   4.625   4.932  0.5398 -0.0483 -0.2061
 6592TP3     H119788   5.592   4.574   4.860 -1.4658 -2.1067  0.0308
 6592TP3     H219789   5.487   4.566   4.969  0.4208  1.5414  2.3347
 6593TP3      O19790   5.049   0.098   5.750 -0.7039  0.2982  0.2734
 6593TP3     H119791   5.045   0.174   5.692  0.4189  0.5272  0.4721
 6593TP3     H219792   5.122   0.046   5.717 -0.2001  0.3063  1.3229
 6594TP3      O19793   5.062   0.198   0.435  0.1547 -0.0204  0.5093
 6594TP3     H119794   5.039   0.172   0.346 -1.6329  0.9556  0.6481
 6594TP3     H219795   5.157   0.210   0.432  0.1658 -0.2834 -1.1873
 6595TP3      O19796   4.233   0.403   0.272 -0.3309  0.1621  0.4851
 6595TP3     H119797   4.239   0.421   0.178 -0.9078 -1.9284  0.0019
 6595TP3     H219798   4.211   0.488   0.311 -1.4401  0.8201 -1.4266
 6596TP3      O19799   3.830   5.773   0.680  0.1712 -0.3803 -0.2911
 6596TP3     H119800   3.919   5.784   0.644  0.2715 -2.2290 -0.7149
 6596TP3     H219801   3.772   5.790   0.606  0.2723 -1.1499 -0.5627
 6597TP3      O19802   4.414   5.817   5.669 -0.5937 -0.0905 -0.5264
 6597TP3     H119803   4.356   5.863   5.608 -0.8501 -1.5397 -1.4355
 6597TP3     H219804   4.398   5.858   5.754 -0.6017  1.6478 -1.3333
 6598TP3      O19805   3.942  -0.019   5.239 -0.4122 -0.5794 -0.0351
 6598TP3     H119806   4.000   0.053   5.262  0.2577 -0.6852 -1.3087
 6598TP3     H219807   3.855   0.011   5.264  0.0300  0.0646  0.8032
 6599TP3      O19808   3.840   5.506   5.776  0.2599  0.0782 -0.0135
 6599TP3     H119809   3.798   5.590   5.759 -0.7033 -0.5405 -0.8008
 6599TP3     H219810   3.782   5.441   5.736  2.4511 -0.7764 -2.0246
 6600TP3      O19811   3.814   5.751   0.369 -0.8383  0.1798  0.5784
 6600TP3     H119812   3.822   5.846   0.377 -2.1884  0.2313  1.7717
 6600TP3     H219813   3.903   5.721   0.350 -0.8104  1.8683 -2.6573
 6601TP3      O19814   5.442   5.630   0.009 -0.4502  0.1328 -0.3573
 6601TP3     H119815   5.405   5.620   0.097  1.3257  0.4869  0.4893
 6601TP3     H219816   5.379   5.686  -0.037  0.0978  2.7124  1.7584
 6602TP3      O19817   4.733   5.676   0.844  0.6587 -0.3931 -0.2155
 6602TP3     H119818   4.687   5.607   0.796 -0.5412  0.5649 -0.4968
 6602TP3     H219819   4.670   5.748   0.848  1.6424  0.4496  0.6451
 6603TP3      O19820   5.628   0.369   0.053  0.2746 -0.5055 -0.0472
 6603TP3     H119821   5.634   0.319   0.134 -1.4028 -0.5045  0.1037
 6603TP3     H219822   5.553   0.427   0.066  0.5794  0.1794 -1.2295
 6604TP3      O19823   4.581   0.876   4.816  0.2154  0.2255  0.1910
 6604TP3     H119824   4.513   0.917   4.868  1.2236 -0.9600  2.5941
 6604TP3     H219825   4.537   0.852   4.734 -1.9234  0.6008  1.1620
 6605TP3      O19826   4.542   0.207   4.668 -0.6147 -0.1534 -0.4202
 6605TP3     H119827   4.601   0.132   4.660  0.2608  0.5488 -0.6619
 6605TP3     H219828   4.477   0.179   4.733 -0.8621 -1.4735 -1.1937
 6606TP3      O19829   4.901   5.713   5.249  0.4199  0.1777 -0.9607
 6606TP3     H119830   4.874   5.630   5.211  0.9309 -0.7009  0.5295
 6606TP3     H219831   4.848   5.723   5.328 -1.2133  2.3724 -2.1892
 6607TP3      O19832   5.398   0.642   0.346  0.0867 -0.7159 -0.3454
 6607TP3     H119833   5.469   0.584   0.374  0.4383  0.0154  0.3239
 6607TP3     H219834   5.395   0.710   0.413 -0.8827 -0.4289 -0.6675
 6608TP3      O19835   5.512   5.874   1.612  0.1563  0.1797 -0.3237
 6608TP3     H119836   5.475   5.811   1.551  0.2815 -0.4163  0.2014
 6608TP3     H219837   5.565   5.932   1.558 -3.3225  2.5789 -1.5185
 6609TP3      O19838   5.483   0.374   1.310 -0.4328  0.0150 -0.5622
 6609TP3     H119839   5.512   0.341   1.395  0.1652 -0.2165 -0.8483
 6609TP3     H219840   5.401   0.328   1.293 -0.5121 -0.0016 -0.1481
 6610TP3      O19841   0.918   0.938   5.568  0.4122  0.2406  0.0753
 6610TP3     H119842   0.866   0.862   5.540 -1.7391  1.3160  0.9248
 6610TP3     H219843   0.938   0.920   5.660 -1.2556  1.2479  0.6716
 6611TP3      O19844   5.222   2.436   1.540 -0.1423  0.0589  0.2561
 6611TP3     H119845   5.278   2.377   1.490  1.7495  0.7782  1.4116
 6611TP3     H219846   5.185   2.381   1.609  0.8484 -0.0079  0.7501
 6612TP3      O19847   1.093   2.090   0.642  0.4113 -0.6074  0.5847
 6612TP3     H119848   1.020   2.110   0.584 -0.8166  1.7824  2.7679
 6612TP3     H219849   1.059   2.025   0.703 -0.3176  1.1970  2.1939
 6613TP3      O19850   0.461   1.263   1.255 -0.5938  0.4032  0.6125
 6613TP3     H119851   0.543   1.263   1.205 -0.4412 -3.1728  0.5590
 6613TP3     H219852   0.409   1.333   1.217  1.9437  1.9783 -0.1870
 6614TP3      O19853   5.748   1.390   0.722  0.0859 -0.4742  0.0888
 6614TP3     H119854   5.727   1.457   0.657  1.2028 -0.8742 -0.7181
 6614TP3     H219855   5.823   1.425   0.770 -0.5612 -0.3011  0.9918
 6615TP3      O19856   0.649   0.694   0.362 -0.0809  0.1766 -0.4977
 6615TP3     H119857   0.678   0.783   0.383  0.7990 -0.2758  0.3001
 6615TP3     H219858   0.563   0.686   0.403  0.6327  0.0717  1.0780
 6616TP3      O19859   5.873   2.141   0.248 -0.3871  0.5402 -0.1402
 6616TP3     H119860   5.862   2.218   0.304 -0.8399  2.1006 -2.2387
 6616TP3     H219861   5.784   2.108   0.236 -0.2283 -0.1527  0.4766
 6617TP3      O19862   5.997   0.606   1.699 -0.0945 -0.1071 -0.5592
 6617TP3     H119863   5.998   0.652   1.783 -2.5713 -0.5485 -0.2043
 6617TP3     H219864   6.003   0.513   1.723 -1.6795 -0.2884 -0.7506
 6618TP3      O19865   4.793   1.768   1.312  0.0293  0.6029  0.0811
 6618TP3     H119866   4.835   1.701   1.365  0.0676 -1.8276 -2.7932
 6618TP3     H219867   4.865   1.806   1.261 -0.3971  0.7433 -0.4264
 6619TP3      O19868   4.893   0.365   1.724  0.1991  0.1394  0.2751
 6619TP3     H119869   4.911   0.274   1.750 -0.2305  0.4331  1.6489
 6619TP3     H219870   4.803   0.362   1.691 -0.0520  0.1735  0.9350
 6620TP3      O19871   5.664   1.654   2.351  0.0905  0.2531 -0.6884
 6620TP3     H119872   5.757   1.634   2.342  0.1389  0.5402 -0.8300
 6620TP3     H219873   5.656   1.690   2.439  0.5420  2.5683 -1.5452
 6621TP3      O19874   5.310   0.183   1.244  0.4525  0.8304 -0.4223
 6621TP3     H119875   5.223   0.197   1.205 -1.1553 -0.2539  2.4511
 6621TP3     H219876   5.315   0.088   1.256  2.8332  0.6723 -2.0320
 6622TP3      O19877   0.193   1.698   0.399  0.0763  0.0942  0.2033
 6622TP3     H119878   0.202   1.698   0.494  0.3761  0.0006  0.1750
 6622TP3     H219879   0.100   1.680   0.384 -0.4615  2.3729  0.5207
 6623TP3      O19880   5.784   2.075   1.432 -0.2510  0.3773 -0.0893
 6623TP3     H119881   5.755   1.994   1.472  1.0171  0.3952  0.9392
 6623TP3     H219882   5.711   2.135   1.442 -1.1130 -0.5505 -0.6435
 6624TP3      O19883   5.670   5.644   0.578  0.2662  0.3857 -0.8321
 6624TP3     H119884   5.725   5.691   0.515 -1.4146  2.2569 -0.9922
 6624TP3     H219885   5.616   5.587   0.523  0.0887  0.6418 -0.9247
 6625TP3      O19886   5.410   0.570   1.691  0.3706  0.2023  0.3535
 6625TP3     H119887   5.448   0.604   1.610  0.7309  0.3409  0.5781
 6625TP3     H219888   5.477   0.513   1.727 -0.3037 -0.9355 -0.1166
 6626TP3      O19889   5.759   1.686   1.424 -0.4584 -0.5736  0.2286
 6626TP3     H119890   5.809   1.690   1.506 -0.3204 -0.2105  0.1322
 6626TP3     H219891   5.673   1.652   1.450 -0.3772 -0.5728  0.5055
 6627TP3      O19892   5.761   0.712   1.065  0.0278 -0.0137 -0.2029
 6627TP3     H119893   5.678   0.665   1.074 -0.0838  0.3443  0.7128
 6627TP3     H219894   5.809   0.690   1.144  0.5674  0.2769 -0.4446
 6628TP3      O19895   5.414   0.878   1.438  0.0808  0.3049 -0.0230
 6628TP3     H119896   5.472   0.802   1.442  0.4545  0.6415  2.0284
 6628TP3     H219897   5.453   0.940   1.499 -1.7326  1.0724  0.4044
 6629TP3      O19898   5.192   1.974   1.650 -0.2538  0.5184  0.2434
 6629TP3     H119899   5.110   1.925   1.649  0.0689 -0.0283  0.1495
 6629TP3     H219900   5.260   1.908   1.664  0.2820  0.8015 -0.9251
 6630TP3      O19901   4.691   5.840   2.021 -0.1484 -0.1574 -0.2343
 6630TP3     H119902   4.703   5.856   2.115  0.7054 -2.3681  0.1034
 6630TP3     H219903   4.629   5.767   2.017 -0.7055  0.3634 -1.4353
 6631TP3      O19904   5.526   1.241   0.891 -0.4244 -0.1679  0.6843
 6631TP3     H119905   5.598   1.269   0.834 -1.8217 -0.3677 -1.3008
 6631TP3     H219906   5.546   1.278   0.976  1.5048  0.6198 -0.0629
 6632TP3      O19907   5.012   0.785   0.309  0.0264 -0.1193  0.3322
 6632TP3     H119908   4.927   0.749   0.282  1.0108 -2.0737 -0.3728
 6632TP3     H219909   5.063   0.788   0.228  1.3647 -1.1534  1.0958
 6633TP3      O19910   0.086   5.772   1.378 -0.6238  0.1593 -0.3463
 6633TP3     H119911   0.067   5.694   1.429 -0.4154 -0.2955 -0.9564
 6633TP3     H219912   0.014   5.780   1.317 -0.0664 -0.2224 -1.0670
 6634TP3      O19913   5.046   1.539   2.173 -0.4010  0.3996 -0.0596
 6634TP3     H119914   4.996   1.504   2.247  0.0740 -2.5402 -0.9914
 6634TP3     H219915   4.982   1.546   2.102  0.0843 -1.9457 -0.8235
 6635TP3      O19916   5.315   1.460   1.634  0.6255  0.0814 -0.6620
 6635TP3     H119917   5.314   1.402   1.710  0.9856  0.2348 -0.5374
 6635TP3     H219918   5.238   1.434   1.583 -0.5246  1.0192  0.5287
 6636TP3      O19919   5.285   5.920   1.275  0.3093  0.0887  0.3214
 6636TP3     H119920   5.222   5.886   1.338 -0.3354  1.0873  0.2265
 6636TP3     H219921   5.348   5.849   1.265 -1.4788 -1.4549 -0.5578
 6637TP3      O19922   5.366   0.662   2.057  0.3300 -0.1809 -0.1595
 6637TP3     H119923   5.403   0.576   2.039  0.2212 -0.2228 -0.1843
 6637TP3     H219924   5.357   0.703   1.970 -1.6077 -0.9562 -0.3818
 6638TP3      O19925   0.800   1.307   0.925 -0.4360 -0.2243 -0.1185
 6638TP3     H119926   0.887   1.348   0.918 -0.2520 -0.7670 -1.1831
 6638TP3     H219927   0.749   1.347   0.855 -0.3076 -1.6360 -1.0625
 6639TP3      O19928   0.234   0.619   2.197  0.1148 -0.1757 -0.1376
 6639TP3     H119929   0.209   0.684   2.131 -1.5780 -0.9718 -0.3439
 6639TP3     H219930   0.320   0.588   2.169  0.6256  1.4368 -0.4284
 6640TP3      O19931   5.460   5.975   5.903  0.1779 -0.1349 -0.0657
 6640TP3     H119932   5.400   6.033   5.949  0.3062  0.7557 -0.9791
 6640TP3     H219933   5.541   5.978   5.954 -0.4916 -1.2648  1.1133
 6641TP3      O19934   5.788   0.070   0.253 -0.3219 -0.1257  0.7383
 6641TP3     H119935   5.871   0.117   0.262 -0.3566  0.0491  0.1871
 6641TP3     H219936   5.784   0.046   0.160 -0.0080 -1.7724  1.1111
 6642TP3      O19937   5.874   0.885   1.431  0.1505  0.0426 -0.0111
 6642TP3     H119938   5.835   0.807   1.471 -3.2826  1.3347 -0.5180
 6642TP3     H219939   5.904   0.937   1.506 -1.7851  0.2595  0.6591
 6643TP3      O19940   0.770   1.337   2.126  0.1827 -0.5970 -0.1402
 6643TP3     H119941   0.732   1.390   2.056  0.9719 -0.2953 -0.3479
 6643TP3     H219942   0.835   1.394   2.168  0.5487 -1.1634  0.0770
 6644TP3      O19943   0.358   2.371   1.378  0.2448 -0.4759 -1.0600
 6644TP3     H119944   0.275   2.417   1.366 -0.3198 -0.1427  2.8593
 6644TP3     H219945   0.425   2.436   1.357 -0.5556  0.9952  0.7093
 6645TP3      O19946   4.834   1.073   1.140  0.2549 -0.3787  0.9160
 6645TP3     H119947   4.861   0.984   1.163  0.9011 -0.6226 -0.6208
 6645TP3     H219948   4.851   1.079   1.046  1.7747  1.9191  1.2700
 6646TP3      O19949   0.515   0.602   2.113 -0.4446  0.2255 -0.6234
 6646TP3     H119950   0.537   0.605   2.020 -1.1141 -0.2479 -0.8023
 6646TP3     H219951   0.529   0.692   2.144  0.7213  0.1762 -0.9514
 6647TP3      O19952   5.734   0.667   1.941 -0.0739 -0.6368 -0.1871
 6647TP3     H119953   5.822   0.645   1.972  0.3976  0.8129 -0.4533
 6647TP3     H219954   5.707   0.741   1.995 -0.7054 -0.4096 -0.8039
 6648TP3      O19955   5.363   0.105   2.735  0.8331 -0.5690  0.5442
 6648TP3     H119956   5.457   0.091   2.731  0.8010 -0.5130 -0.5580
 6648TP3     H219957   5.328   0.054   2.662  0.2461  1.3556 -0.5617
 6649TP3      O19958   5.166   0.558   2.491 -0.3046  0.0458 -0.6683
 6649TP3     H119959   5.149   0.568   2.585 -0.1022 -0.3595 -0.5854
 6649TP3     H219960   5.255   0.524   2.486 -0.0424  0.7672 -1.0440
 6650TP3      O19961   5.776   1.288   4.052 -0.5836 -0.1264  0.2631
 6650TP3     H119962   5.830   1.248   4.120  1.7624  1.6166 -0.4248
 6650TP3     H219963   5.775   1.381   4.074  0.6894  0.5930 -2.2460
 6651TP3      O19964   5.562   1.475   3.167  0.2393  0.2474 -0.7263
 6651TP3     H119965   5.530   1.549   3.116  1.2193 -0.6167 -2.7080
 6651TP3     H219966   5.592   1.412   3.102  1.8974 -0.7975  0.9334
 6652TP3      O19967   0.356   1.597   2.598 -0.2232 -0.2949  0.1429
 6652TP3     H119968   0.381   1.621   2.509  0.7533  0.4789  0.6066
 6652TP3     H219969   0.324   1.507   2.590 -1.2435  0.1463 -1.1655
 6653TP3      O19970   5.426   0.589   3.175 -0.0633  0.2492 -0.4994
 6653TP3     H119971   5.441   0.673   3.218 -0.2416  1.3302 -2.4391
 6653TP3     H219972   5.430   0.609   3.082 -2.9573 -1.3628 -1.0696
 6654TP3      O19973   5.489   6.009   2.272 -0.0377  0.0173 -0.3886
 6654TP3     H119974   5.461   6.026   2.182  0.3080  2.1300 -0.1344
 6654TP3     H219975   5.549   5.934   2.264 -0.3433 -0.0987 -1.8515
 6655TP3      O19976   5.842   1.761   1.664 -0.7089 -0.3054 -0.2065
 6655TP3     H119977   5.900   1.836   1.676  1.0525 -1.7256  0.5114
 6655TP3     H219978   5.831   1.725   1.752 -0.6873 -1.4979 -0.6822
 6656TP3      O19979   4.461   0.763   4.089  0.1905  0.1427 -0.1295
 6656TP3     H119980   4.382   0.800   4.128  0.0721  1.9810 -1.9317
 6656TP3     H219981   4.443   0.669   4.084 -1.2250  0.3206  0.9150
 6657TP3      O19982   5.896   1.795   1.975 -0.1469 -0.3298 -0.0606
 6657TP3     H119983   5.981   1.769   2.011 -0.1758 -0.0871  0.1844
 6657TP3     H219984   5.853   1.843   2.046  0.3142  1.2755 -0.8030
 6658TP3      O19985   5.611   0.879   2.091  0.2129  0.9097  0.2040
 6658TP3     H119986   5.527   0.923   2.096  0.1051  0.6717  0.4993
 6658TP3     H219987   5.665   0.937   2.037 -0.1494  1.0409 -0.0218
 6659TP3      O19988   5.777   2.285   3.670  0.3927 -0.3934 -0.0468
 6659TP3     H119989   5.735   2.369   3.686 -1.0326 -0.9473 -0.7607
 6659TP3     H219990   5.747   2.229   3.742  1.0114 -0.4184  0.2012
 6660TP3      O19991   5.449  -0.024   3.625 -0.0835 -0.1259  0.3316
 6660TP3     H119992   5.421  -0.041   3.715 -2.8945 -0.2771 -0.4852
 6660TP3     H219993   5.421   0.067   3.609  0.6461 -0.0080 -0.3172
 6661TP3      O19994   0.251   1.344   2.592 -0.8380 -0.7462 -0.1414
 6661TP3     H119995   0.173   1.291   2.581 -1.8614  0.3642  1.3926
 6661TP3     H219996   0.321   1.282   2.608 -1.9740 -1.6681  1.4769
 6662TP3      O19997   0.335   2.325   3.297  0.2865 -0.0048  0.5127
 6662TP3     H119998   0.415   2.333   3.349  0.5263  1.9836 -0.1026
 6662TP3     H219999   0.365   2.310   3.208 -0.0999 -1.3924  0.5856
 6663TP3      O20000   5.845   5.574   2.173 -0.3987  0.2519 -0.0664
 6663TP3     H120001   5.931   5.609   2.152 -0.1456 -1.1477 -1.6361
 6663TP3     H220002   5.851   5.549   2.265  0.5985  0.9438  0.0711
 6664TP3      O20003   0.334   0.658   3.175 -0.2977  0.4140 -0.3591
 6664TP3     H120004   0.414   0.682   3.129 -1.1471  1.9702 -1.1236
 6664TP3     H220005   0.346   0.566   3.199  2.1019  0.8724  0.4273
 6665TP3      O20006   5.657   2.120   3.847 -0.0955  0.6885 -0.2540
 6665TP3     H120007   5.575   2.127   3.896 -1.3250 -0.4117 -2.0662
 6665TP3     H220008   5.712   2.062   3.901 -1.6273 -0.9598 -0.3733
 6666TP3      O20009   0.865   0.290   2.985 -0.8786  0.3469  0.2581
 6666TP3     H120010   0.781   0.289   3.029 -0.9938  1.6362  0.1112
 6666TP3     H220011   0.913   0.216   3.022 -1.0740  1.2081  2.3430
 6667TP3      O20012   4.750   5.578   3.483 -0.1853  0.8340  0.0552
 6667TP3     H120013   4.737   5.672   3.500 -0.4624  0.3770  2.9054
 6667TP3     H220014   4.662   5.541   3.485 -0.3234  0.6947 -3.2281
 6668TP3      O20015   5.969   0.951   4.413  0.2022 -0.5661 -0.9460
 6668TP3     H120016   6.015   0.998   4.343  0.1240 -0.1916 -0.7502
 6668TP3     H220017   5.962   0.861   4.381  3.1923 -1.2602 -0.0132
 6669TP3      O20018   0.791   0.788   2.919 -0.1172 -0.3450 -0.2730
 6669TP3     H120019   0.768   0.703   2.883  0.7282 -0.1059 -1.4186
 6669TP3     H220020   0.867   0.816   2.869  1.5633 -0.2781  2.1345
 6670TP3      O20021   5.186   1.016   1.646  0.0856 -0.0491 -0.2300
 6670TP3     H120022   5.128   1.089   1.665  0.9686  0.8891 -1.0523
 6670TP3     H220023   5.130   0.951   1.605 -0.1432  1.4396 -2.4131
 6671TP3      O20024   5.951   2.743   3.020 -0.3390 -0.6061 -0.2198
 6671TP3     H120025   6.017   2.734   3.089  0.4700 -0.9469 -1.0121
 6671TP3     H220026   5.968   2.830   2.984 -0.5243 -0.5734 -0.2264
 6672TP3      O20027   5.165   5.859   2.302  0.4540 -0.2535 -0.5218
 6672TP3     H120028   5.101   5.795   2.271  0.1879 -0.2407  0.0003
 6672TP3     H220029   5.250   5.820   2.281  0.3592 -1.7125  1.5658
 6673TP3      O20030   5.201   0.329   4.118  0.3038  0.1291 -0.1955
 6673TP3     H120031   5.120   0.288   4.149  0.2333 -0.9562 -1.6944
 6673TP3     H220032   5.204   0.414   4.162 -0.3099 -0.8751  1.8903
 6674TP3      O20033   0.441   2.019   3.571  0.6613  0.1892 -0.4609
 6674TP3     H120034   0.414   1.975   3.652  0.2251  1.8960  0.3628
 6674TP3     H220035   0.369   2.080   3.552  1.1908  0.4797 -1.6394
 6675TP3      O20036   0.081   0.693   2.406  0.5214 -0.0713  0.3781
 6675TP3     H120037  -0.008   0.710   2.376 -0.5960 -0.6028  3.0833
 6675TP3     H220038   0.127   0.660   2.329 -1.5115  0.4980 -1.1607
 6676TP3      O20039   5.753   0.663   2.751 -0.0945 -0.4647 -0.0516
 6676TP3     H120040   5.841   0.625   2.750  0.2208  0.2676 -0.2164
 6676TP3     H220041   5.697   0.589   2.775  0.3759 -1.3117 -1.4110
 6677TP3      O20042   4.685   2.247   4.165  0.2726 -0.2863 -0.2653
 6677TP3     H120043   4.634   2.276   4.240  0.7250 -0.4136  0.0994
 6677TP3     H220044   4.728   2.327   4.133  1.6548 -0.5336  0.8439
 6678TP3      O20045   5.394   1.315   3.346  0.0597 -0.1383  0.3052
 6678TP3     H120046   5.460   1.371   3.305 -0.7836 -0.7664 -2.0975
 6678TP3     H220047   5.324   1.375   3.372  0.0332  0.1577 -0.4243
 6679TP3      O20048   5.698   1.606   3.356 -0.0756 -0.5100  0.4370
 6679TP3     H120049   5.661   1.553   3.285 -1.2904  1.3929 -0.4399
 6679TP3     H220050   5.784   1.569   3.371  0.3890 -0.7835 -2.3396
 6680TP3      O20051   5.537   5.794   1.882 -0.0454 -0.0230  0.2131
 6680TP3     H120052   5.544   5.797   1.787  1.4033 -1.7342  0.2059
 6680TP3     H220053   5.611   5.847   1.913 -0.2379  0.1474  0.3803
 6681TP3      O20054   5.710   0.003   1.942 -0.0974  0.2488 -0.0530
 6681TP3     H120055   5.644   0.061   1.904  1.0955  1.1588 -0.8173
 6681TP3     H220056   5.762  -0.027   1.867  0.6193 -0.1034  0.5640
 6682TP3      O20057   5.980   1.169   3.255  0.1324 -0.3327 -0.3591
 6682TP3     H120058   5.938   1.153   3.171 -0.7123 -2.2037  0.3439
 6682TP3     H220059   6.073   1.174   3.235 -0.0897 -0.3203 -1.4522
 6683TP3      O20060   4.925   1.154   4.518  0.0565  0.8877 -0.6124
 6683TP3     H120061   4.867   1.167   4.593  0.1738 -1.0996 -0.1323
 6683TP3     H220062   5.008   1.195   4.546 -0.0204  0.5232  0.2000
 6684TP3      O20063   5.910   1.543   2.354  0.8860  0.1201  0.3298
 6684TP3     H120064   5.945   1.576   2.271 -1.0092  1.8741  0.1313
 6684TP3     H220065   5.951   1.597   2.421  0.9740  0.0037  0.3697
 6685TP3      O20066   5.374   0.719   2.346 -0.0139 -0.3527  0.3559
 6685TP3     H120067   5.349   0.691   2.258 -1.2814  0.3476  0.4681
 6685TP3     H220068   5.389   0.638   2.394 -0.0244 -0.7548 -0.3121
 6686TP3      O20069   5.186   0.053   3.417 -0.3109 -0.3107 -0.4114
 6686TP3     H120070   5.093   0.052   3.395 -0.8561 -0.1205  1.6536
 6686TP3     H220071   5.213   0.144   3.403 -1.4490  0.5933  2.5110
 6687TP3      O20072   0.350   0.295   5.061  0.5323 -0.4000  0.1491
 6687TP3     H120073   0.265   0.255   5.048 -0.2977  1.0787  0.7149
 6687TP3     H220074   0.374   0.329   4.975  0.0881  0.0010  0.1768
 6688TP3      O20075   5.786   0.102   4.040  0.0188  0.9723  0.3136
 6688TP3     H120076   5.710   0.084   3.984  0.3209 -1.5621  0.6356
 6688TP3     H220077   5.840   0.161   3.988 -0.4967 -0.0025 -1.3892
 6689TP3      O20078   0.747   1.004   3.754 -0.5700  0.4852 -0.2754
 6689TP3     H120079   0.834   0.971   3.730 -0.1586  0.0257  1.6677
 6689TP3     H220080   0.723   1.061   3.681  1.3814  0.6446 -0.8668
 6690TP3      O20081   5.625   1.713   5.292 -0.3764  0.2362 -0.0275
 6690TP3     H120082   5.678   1.633   5.290  0.6834  0.8766  1.0028
 6690TP3     H220083   5.577   1.708   5.374 -2.0205 -0.3667 -0.9835
 6691TP3      O20084   5.675   1.863   4.141  0.0614 -0.3805  0.3978
 6691TP3     H120085   5.644   1.809   4.213 -4.4795 -2.0636 -2.3991
 6691TP3     H220086   5.612   1.934   4.134  0.5586 -0.0562 -1.6466
 6692TP3      O20087   5.785   0.841   4.147 -0.1155 -1.0771  0.1846
 6692TP3     H120088   5.870   0.825   4.107  1.3395  1.4058  2.0137
 6692TP3     H220089   5.737   0.894   4.084 -0.5609 -2.8336 -1.0344
 6693TP3      O20090   0.170   0.789   4.739  0.1023 -0.0177 -0.5192
 6693TP3     H120091   0.112   0.732   4.688  1.2532 -0.5175 -1.3001
 6693TP3     H220092   0.182   0.742   4.822 -0.5382  0.0555 -0.3777
 6694TP3      O20093   0.586   0.883   5.058 -0.1476  0.0697  0.3069
 6694TP3     H120094   0.589   0.920   5.146 -0.5514  1.5787 -0.2680
 6694TP3     H220095   0.494   0.894   5.031 -0.0590 -0.4931 -0.2513
 6695TP3      O20096   5.279   2.676   4.107 -0.5449  0.5925  0.5310
 6695TP3     H120097   5.292   2.770   4.097  0.0779  0.3688 -1.0458
 6695TP3     H220098   5.323   2.637   4.031 -0.5794 -0.9909  1.2706
 6696TP3      O20099   5.654   0.837   5.244  0.6300 -0.3851 -0.2814
 6696TP3     H120100   5.592   0.772   5.211  2.0591 -1.2070 -1.4728
 6696TP3     H220101   5.663   0.899   5.173  1.0216 -0.1522 -0.0310
 6697TP3      O20102   0.116   0.987   5.143  0.1174  0.2711  0.0699
 6697TP3     H120103   0.157   0.956   5.223 -1.8336 -0.0821  0.9873
 6697TP3     H220104   0.024   0.964   5.153 -0.5503  2.1165 -1.3541
 6698TP3      O20105   5.895   0.806   5.063  0.0205 -0.0249 -0.1270
 6698TP3     H120106   5.888   0.856   4.981 -0.0515 -0.4068 -0.3578
 6698TP3     H220107   5.835   0.733   5.051 -0.5496  0.3191  0.5717
 6699TP3      O20108   5.907   2.743   4.991  0.5260 -0.0207 -0.3717
 6699TP3     H120109   5.872   2.661   5.027  1.1601 -0.6763 -1.2031
 6699TP3     H220110   5.866   2.812   5.044 -0.2418 -0.8574  0.1544
 6700TP3      O20111   5.225   0.288   4.692  0.0303 -0.3977  0.1224
 6700TP3     H120112   5.233   0.350   4.619 -1.6670 -0.8223 -0.4765
 6700TP3     H220113   5.247   0.339   4.770 -1.6897  1.1028 -0.3041
 6701TP3      O20114   4.172   0.812   4.081 -0.2813  0.1862 -0.1445
 6701TP3     H120115   4.126   0.779   4.003  4.6429 -0.6446 -3.1312
 6701TP3     H220116   4.190   0.904   4.061 -1.1318  0.6928  1.2851
 6702TP3      O20117   0.754   1.814   5.119  0.1678  0.3248  0.3435
 6702TP3     H120118   0.817   1.750   5.086 -0.7630 -0.9367  0.9141
 6702TP3     H220119   0.800   1.898   5.117  1.4746 -0.3925 -0.2778
 6703TP3      O20120   0.725   0.019   3.690  0.2660 -0.1160 -0.7442
 6703TP3     H120121   0.659   0.071   3.643  1.0548 -0.6615 -2.5522
 6703TP3     H220122   0.687   0.006   3.777  0.0002  3.3496 -0.2176
 6704TP3      O20123   0.517   0.466   4.197  0.0230  0.0142  0.0371
 6704TP3     H120124   0.451   0.438   4.261  0.2025 -0.8574 -0.1526
 6704TP3     H220125   0.473   0.534   4.145  0.0050  1.0410  1.3348
 6705TP3      O20126   0.221   0.401   5.396 -0.1766  0.7191  0.0421
 6705TP3     H120127   0.190   0.462   5.464 -0.8433  0.5063 -0.0709
 6705TP3     H220128   0.144   0.351   5.371  0.4385 -0.4534  0.4134
 6706TP3      O20129   0.415   5.973   4.478  0.7371  0.2422  0.1070
 6706TP3     H120130   0.498   5.944   4.440  1.4645  1.2960  0.8205
 6706TP3     H220131   0.351   5.909   4.447  2.1778 -1.9336  1.3687
 6707TP3      O20132   5.190   0.018   4.647  0.0639 -0.1865  0.6518
 6707TP3     H120133   5.207   0.105   4.682  0.2027 -0.0332  0.2095
 6707TP3     H220134   5.268  -0.002   4.596  0.1851 -0.7157  1.0327
 6708TP3      O20135   5.423   1.172   5.183  0.4401  0.8705 -0.2508
 6708TP3     H120136   5.382   1.250   5.145 -0.3624  0.9560  0.7531
 6708TP3     H220137   5.373   1.099   5.147  0.4561  0.8800 -0.2931
 6709TP3      O20138   5.249   0.892   5.466 -0.4976  0.2191 -0.6836
 6709TP3     H120139   5.207   0.876   5.381 -1.1874 -2.0707  0.0305
 6709TP3     H220140   5.247   0.988   5.475  0.4943  0.6451 -3.6505
 6710TP3      O20141   5.732   1.595   4.622 -0.0294  0.3054  0.4726
 6710TP3     H120142   5.823   1.618   4.637  0.1450  1.1005 -1.5275
 6710TP3     H220143   5.687   1.622   4.702  1.5822 -1.0150  1.9226
 6711TP3      O20144   5.368   2.214   4.625 -0.0808  0.6319 -0.2160
 6711TP3     H120145   5.444   2.272   4.625 -0.0757  0.6270  0.6525
 6711TP3     H220146   5.404   2.126   4.613  0.2507  0.4023  2.0559
 6712TP3      O20147   5.270   0.802   3.482 -0.3678 -0.1041  0.2238
 6712TP3     H120148   5.281   0.881   3.429 -0.1564  0.9778  1.8259
 6712TP3     H220149   5.216   0.745   3.428 -2.2353  1.9224 -0.1846
 6713TP3      O20150   0.981   0.571   5.791  0.6374  0.0099 -0.2944
 6713TP3     H120151   1.047   0.540   5.729 -0.0019  0.0481 -1.0111
 6713TP3     H220152   0.990   0.666   5.790  1.3982 -0.0362  0.5583
 6714TP3      O20153   0.211   1.486   5.505 -0.3359  0.0119 -0.1632
 6714TP3     H120154   0.122   1.494   5.470  0.0776 -1.4704 -1.6497
 6714TP3     H220155   0.201   1.434   5.585 -0.8933  0.6189  0.1740
 6715TP3      O20156   5.883   1.266   5.659  0.0492 -0.3443  0.3044
 6715TP3     H120157   5.823   1.265   5.734  0.7746 -1.2808  0.9030
 6715TP3     H220158   5.965   1.299   5.694  0.0031  0.5639 -0.4187
 6716TP3      O20159   0.434   1.599   4.088  0.5923  0.1610 -0.1754
 6716TP3     H120160   0.355   1.554   4.058  1.8708 -1.6729 -0.9595
 6716TP3     H220161   0.426   1.599   4.184 -0.2957 -0.0883 -0.2379
 6717TP3      O20162   5.093   0.286   5.932  0.0240  0.1725  0.2668
 6717TP3     H120163   5.102   0.205   5.881  0.4436  1.6843 -2.1986
 6717TP3     H220164   5.089   0.356   5.866 -0.5076  2.1710  2.3000
 6718TP3      O20165   4.775   0.226   5.870  0.2774 -0.1783 -1.5662
 6718TP3     H120166   4.775   0.298   5.807 -1.6770  0.9009 -0.4532
 6718TP3     H220167   4.711   0.164   5.834  0.1751 -0.2071 -1.3352
 6719TP3      O20168   0.328   1.698   4.602  0.3880 -0.2227 -0.1589
 6719TP3     H120169   0.380   1.709   4.682  0.9402  0.5025 -0.6096
 6719TP3     H220170   0.311   1.787   4.572 -1.1306 -0.4447 -0.0284
 6720TP3      O20171   5.829   0.309   2.739  0.3935 -0.2166  0.0187
 6720TP3     H120172   5.776   0.268   2.808 -0.4116 -0.1237 -0.5372
 6720TP3     H220173   5.898   0.356   2.786  0.5847 -1.1679  0.7149
 6721TP3      O20174   5.982   0.241   4.520  0.1966 -0.1014 -0.0054
 6721TP3     H120175   5.913   0.306   4.507  1.6038  1.2804 -0.9056
 6721TP3     H220176   5.973   0.181   4.446 -0.4351 -0.3180  0.2414
 6722TP3      O20177   5.323   0.273   4.996 -0.3597  0.0491 -0.0539
 6722TP3     H120178   5.326   0.364   4.965 -0.9790  0.1263  0.1156
 6722TP3     H220179   5.414   0.253   5.017 -0.1992  0.5948 -0.2000
 6723TP3      O20180   0.309   1.133   5.783  0.5771  0.0430 -0.1608
 6723TP3     H120181   0.276   1.114   5.695  0.0115 -0.0248  0.0587
 6723TP3     H220182   0.335   1.225   5.780 -1.4940  0.7145  0.1789
 6724TP3      O20183   0.430   0.577   4.842 -0.0539  0.4449  0.2331
 6724TP3     H120184   0.368   0.650   4.840 -1.8092 -0.7655  3.6327
 6724TP3     H220185   0.513   0.618   4.870 -0.5721  1.4030  0.4245
 6725TP3      O20186   0.074   0.557   4.597  0.4520 -0.3290  0.2855
 6725TP3     H120187  -0.012   0.542   4.637  0.6516  0.4348  1.0433
 6725TP3     H220188   0.131   0.494   4.642  0.2181 -1.1459 -0.5332
 6726TP3      O20189   0.115   1.406   5.741 -0.3298  0.1371  0.2402
 6726TP3     H120190   0.138   1.326   5.787 -2.5856  0.2970  1.8307
 6726TP3     H220191   0.100   1.470   5.810 -3.4111  0.5213 -0.6041
 6727TP3      O20192   5.305   1.849   0.841 -0.3057 -0.3384 -0.0281
 6727TP3     H120193   5.394   1.886   0.840 -0.1159 -0.7821  0.1866
 6727TP3     H220194   5.265   1.887   0.919  0.1563 -1.1926  0.6413
 6728TP3      O20195   5.869   0.662   5.604  0.0094  0.7576  0.7340
 6728TP3     H120196   5.874   0.736   5.664 -0.9116  2.9226 -1.6283
 6728TP3     H220197   5.779   0.664   5.572  0.3506 -0.5469 -0.3933
 6729TP3      O20198   6.018   0.691   4.310  0.2146 -0.3199 -0.1906
 6729TP3     H120199   6.037   0.619   4.371 -2.0022  1.1934  2.5295
 6729TP3     H220200   5.943   0.660   4.259 -0.1800 -0.3060  0.3688
 6730TP3      O20201   5.442   5.945   5.178 -0.3807 -0.1156 -0.1501
 6730TP3     H120202   5.451   5.980   5.089  2.2205  2.2730  0.9209
 6730TP3     H220203   5.348   5.939   5.191 -0.8764  1.4543 -2.3542
 6731TP3      O20204   4.973   1.096   0.403  0.0835  0.1111 -0.2334
 6731TP3     H120205   4.974   1.005   0.374 -0.1686  0.0977 -0.2054
 6731TP3     H220206   5.058   1.109   0.446 -0.4264 -0.5344  1.0163
 6732TP3      O20207   5.966   5.742   0.031  0.7420 -0.1022 -0.0846
 6732TP3     H120208   5.881   5.761   0.069  0.3307  0.1485 -1.0811
 6732TP3     H220209   6.007   5.679   0.091 -0.4760 -0.8574 -0.0210
 6733TP3      O20210   5.174   0.478   5.721  0.1265 -0.1268  0.5775
 6733TP3     H120211   5.154   0.521   5.804 -0.9093  0.6601 -0.0500
 6733TP3     H220212   5.172   0.548   5.656  0.7224 -0.7590 -0.1545
 6734TP3      O20213   4.682   1.094   0.526 -0.5182  0.4528 -0.0422
 6734TP3     H120214   4.673   1.002   0.502 -1.3399 -0.8938  4.4759
 6734TP3     H220215   4.773   1.116   0.505  0.5143 -2.2778  1.0694
 6735TP3      O20216   0.511   2.065   4.651 -0.1298 -0.1246 -0.5750
 6735TP3     H120217   0.599   2.083   4.619 -0.9578 -1.4735 -4.1017
 6735TP3     H220218   0.480   2.149   4.684  2.2299  0.5162  0.1918
 6736TP3      O20219   5.873   2.658   0.772 -0.1463  0.1079  0.3024
 6736TP3     H120220   5.835   2.650   0.859  0.3484  1.5321  0.6808
 6736TP3     H220221   5.898   2.750   0.765  0.2750 -0.0860 -1.1601
 6737TP3      O20222   4.890   1.540   0.369 -0.0682  0.0560  0.1715
 6737TP3     H120223   4.817   1.578   0.321  0.3938  1.6642  0.6540
 6737TP3     H220224   4.882   1.446   0.357 -0.7791  0.3432 -1.8301
 6738TP3      O20225   5.506   1.511   0.269 -0.1103 -0.2749 -0.4554
 6738TP3     H120226   5.499   1.441   0.205 -1.0637  0.4009 -1.1165
 6738TP3     H220227   5.444   1.578   0.239  0.2794  0.5616  0.5235
 6739TP3      O20228   5.735   2.242   0.714  0.1641 -0.2196  0.2104
 6739TP3     H120229   5.710   2.151   0.695  0.9386 -0.6896  1.3629
 6739TP3     H220230   5.827   2.237   0.740  0.8145  1.1691 -1.6069
 6740TP3      O20231   0.539   3.507   0.461 -0.0339  0.7911 -0.2377
 6740TP3     H120232   0.570   3.465   0.381  0.1902 -0.8983  0.6874
 6740TP3     H220233   0.444   3.492   0.461  0.0210  0.4320  0.0020
 6741TP3      O20234   5.770   2.944   1.096 -0.9443 -0.5674  0.5423
 6741TP3     H120235   5.848   2.970   1.145  0.9140 -2.0581 -1.4832
 6741TP3     H220236   5.703   2.933   1.164  0.4458  1.0619  2.3162
 6742TP3      O20237   0.447   3.117   1.214  0.0984 -0.3471 -0.6306
 6742TP3     H120238   0.431   3.116   1.119  0.7245  2.9205 -0.8830
 6742TP3     H220239   0.541   3.130   1.222  0.0803 -0.7696  0.4952
 6743TP3      O20240   5.706   3.527   1.178 -0.1331  0.3746  0.1875
 6743TP3     H120241   5.735   3.616   1.198 -0.1527 -0.0867  2.5835
 6743TP3     H220242   5.723   3.478   1.258  2.7340 -2.5833 -1.9567
 6744TP3      O20243   5.849   1.532   0.098  0.7216  0.2693  0.4504
 6744TP3     H120244   5.852   1.604   0.035 -0.3605 -0.0736 -0.0260
 6744TP3     H220245   5.773   1.480   0.070  0.8035 -0.4146  1.4696
 6745TP3      O20246   5.175   1.724   1.447 -0.2115 -0.1115  0.4732
 6745TP3     H120247   5.237   1.733   1.519  0.1196 -0.9606  0.3110
 6745TP3     H220248   5.229   1.697   1.372 -0.5054  1.0672 -0.1784
 6746TP3      O20249   5.750   1.902   1.181 -0.4611 -0.1053 -0.1401
 6746TP3     H120250   5.775   1.959   1.254 -0.1269 -0.5986  0.1337
 6746TP3     H220251   5.786   1.945   1.103 -0.6456  0.3179  0.0083
 6747TP3      O20252   0.093   1.719   0.129 -0.1900 -0.5687 -0.0005
 6747TP3     H120253   0.029   1.778   0.169  0.4904  1.3609 -1.5745
 6747TP3     H220254   0.177   1.748   0.164  0.1214 -0.8429 -0.5102
 6748TP3      O20255   0.074   3.645   1.340  0.1911  0.1017  0.0901
 6748TP3     H120256   0.028   3.696   1.273  1.2019 -0.0378 -0.7384
 6748TP3     H220257   0.118   3.711   1.394 -2.2767  0.3578  1.9660
 6749TP3      O20258   0.280   1.709   0.667  0.3113 -0.2022 -0.1502
 6749TP3     H120259   0.248   1.663   0.744  0.0390 -1.1845 -0.8263
 6749TP3     H220260   0.363   1.748   0.694  1.0838 -1.9942  0.1548
 6750TP3      O20261   5.145   3.774   0.012  0.5702 -0.1695  0.6753
 6750TP3     H120262   5.148   3.782   0.107  3.3533 -0.2898  0.6711
 6750TP3     H220263   5.236   3.787  -0.016 -0.4630  2.0300 -2.1626
 6751TP3      O20264   0.510   3.393   1.329  0.0165  0.2629  0.1741
 6751TP3     H120265   0.507   3.481   1.292  1.2766  0.7580  1.1437
 6751TP3     H220266   0.456   3.340   1.271 -0.5825  1.6300 -0.5557
 6752TP3      O20267   5.727   2.278   1.983 -0.2251 -0.1312 -0.5764
 6752TP3     H120268   5.809   2.228   1.975 -0.4852 -0.3488 -2.1828
 6752TP3     H220269   5.658   2.212   1.975 -0.5642  0.3387 -1.6658
 6753TP3      O20270   0.663   4.083   0.878  0.1293  0.8881 -0.2870
 6753TP3     H120271   0.654   4.012   0.814  1.1063  1.6804 -1.3574
 6753TP3     H220272   0.683   4.039   0.960  0.7067 -0.0873 -0.9303
 6754TP3      O20273   0.135   2.998   0.477  0.0015 -0.2798  0.0016
 6754TP3     H120274   0.082   3.070   0.444 -0.3611 -0.3002  0.5229
 6754TP3     H220275   0.224   3.032   0.478 -0.2090  0.2807  0.5384
 6755TP3      O20276   5.115   1.999   2.288  0.5268  0.2111 -0.0865
 6755TP3     H120277   5.045   1.998   2.353  0.5011 -0.4421 -0.1240
 6755TP3     H220278   5.172   2.071   2.316  0.3238  0.1683  0.4510
 6756TP3      O20279   0.260   2.975   1.860  0.0073  0.1564 -0.5261
 6756TP3     H120280   0.221   2.899   1.816 -0.7569 -0.2820  0.8161
 6756TP3     H220281   0.341   2.941   1.899 -0.3390  0.0028  0.0815
 6757TP3      O20282   5.246   2.138   0.434 -0.0744  0.0122  0.5837
 6757TP3     H120283   5.289   2.223   0.433  0.8679 -0.4526  0.4879
 6757TP3     H220284   5.173   2.147   0.372  0.0322  0.7405  0.5599
 6758TP3      O20285   0.696   3.484   1.555 -0.0861  0.1498  0.4914
 6758TP3     H120286   0.730   3.453   1.471 -4.4284 -1.9924 -0.7744
 6758TP3     H220287   0.768   3.534   1.592  3.7689 -2.6198 -2.3307
 6759TP3      O20288   5.743   3.949   0.625 -0.7939 -0.4688 -0.4417
 6759TP3     H120289   5.800   3.879   0.594 -2.2352 -1.3744 -1.1539
 6759TP3     H220290   5.655   3.910   0.626 -1.9252  1.7430 -2.4180
 6760TP3      O20291   0.368   2.685   0.559  0.6336  0.0986 -0.2692
 6760TP3     H120292   0.378   2.767   0.608  0.5973 -0.2220  0.2776
 6760TP3     H220293   0.298   2.704   0.496  0.4827  0.4258 -0.0104
 6761TP3      O20294   0.358   2.387   2.069 -0.6449 -0.4601 -0.5578
 6761TP3     H120295   0.295   2.456   2.087 -0.5016 -0.1538 -1.2134
 6761TP3     H220296   0.443   2.432   2.064 -0.7577 -0.3830 -2.7535
 6762TP3      O20297   0.345   2.106   2.033 -0.0053 -0.1580 -0.9425
 6762TP3     H120298   0.307   2.104   1.945  1.3758  0.9079 -1.5943
 6762TP3     H220299   0.369   2.197   2.047  0.9660 -0.5461  0.0258
 6763TP3      O20300   5.934   1.710   1.094 -0.0227  0.2589  0.1354
 6763TP3     H120301   5.862   1.765   1.123  0.7305  0.4286  1.8131
 6763TP3     H220302   6.008   1.736   1.150  1.7405  1.0261 -2.4093
 6764TP3      O20303   5.286   3.249   0.780  0.1027 -0.1072  0.2823
 6764TP3     H120304   5.340   3.202   0.843 -0.7128 -2.8143 -0.8755
 6764TP3     H220305   5.232   3.308   0.832 -0.6046 -2.2981  2.1563
 6765TP3      O20306   5.902   3.146   1.545 -0.1062  0.2133  0.9278
 6765TP3     H120307   5.966   3.170   1.478  0.1171 -1.1184  0.6434
 6765TP3     H220308   5.955   3.116   1.619 -0.3798  0.6226  1.2965
 6766TP3      O20309   5.559   2.622   1.672  0.1491 -0.2212 -0.7160
 6766TP3     H120310   5.562   2.669   1.755 -2.4157  1.4040 -1.4214
 6766TP3     H220311   5.619   2.549   1.683  1.7873  1.3527  1.6411
 6767TP3      O20312   0.098   2.592   1.457  0.0789  0.1604 -0.0762
 6767TP3     H120313   0.032   2.574   1.391  2.8935 -0.9723 -2.8326
 6767TP3     H220314   0.105   2.688   1.458 -0.9826  0.2549 -0.3307
 6768TP3      O20315   5.636   2.082   0.466 -0.3203 -0.3780  0.0258
 6768TP3     H120316   5.648   2.043   0.553 -0.5485 -0.9466 -0.1926
 6768TP3     H220317   5.562   2.035   0.429  1.8897 -2.5950 -1.8560
 6769TP3      O20318   5.537   0.532   0.676 -0.1261  0.4222 -0.4705
 6769TP3     H120319   5.443   0.522   0.662 -0.5244  0.4674  1.7956
 6769TP3     H220320   5.547   0.621   0.709  0.2544 -0.5185  2.1812
 6770TP3      O20321   0.509   2.277   0.558 -0.4060  0.1855  0.1129
 6770TP3     H120322   0.452   2.202   0.574  0.1770 -0.2072  0.3850
 6770TP3     H220323   0.597   2.239   0.548  0.1266  0.9266  1.6068
 6771TP3      O20324   5.725   3.591   2.269 -0.1759 -0.9385  0.5724
 6771TP3     H120325   5.726   3.583   2.365 -1.9275  1.5202  0.9024
 6771TP3     H220326   5.633   3.581   2.245  0.1272 -0.7010 -0.7609
 6772TP3      O20327   5.617   3.869   1.467 -0.1523 -0.2410  0.3185
 6772TP3     H120328   5.637   3.916   1.386  2.3848 -1.0056  0.4091
 6772TP3     H220329   5.550   3.923   1.510 -0.9038  0.6557 -1.8189
 6773TP3      O20330   5.934   3.203   0.627  0.0460  0.2118  0.2269
 6773TP3     H120331   5.900   3.291   0.647 -0.3339  0.0198  0.4385
 6773TP3     H220332   5.914   3.152   0.705  0.2285 -0.0791  0.0845
 6774TP3      O20333   5.509   2.370   2.831 -0.1658  0.6767 -0.3264
 6774TP3     H120334   5.544   2.458   2.820 -1.1764  0.9532 -1.6017
 6774TP3     H220335   5.585   2.315   2.847  0.5610  1.6569 -0.3501
 6775TP3      O20336   5.837   1.942   2.648  0.1636 -0.2022  0.3906
 6775TP3     H120337   5.880   1.948   2.733 -0.5346  2.4391  0.6341
 6775TP3     H220338   5.836   2.032   2.615 -1.5376 -0.8255 -1.4309
 6776TP3      O20339   5.989   2.154   2.487 -0.1468  0.2126 -0.4839
 6776TP3     H120340   6.070   2.141   2.438 -0.6294 -0.8228 -1.0388
 6776TP3     H220341   5.919   2.131   2.425 -0.8046 -0.2258  0.3949
 6777TP3      O20342   0.097   3.259   2.656  0.2271  0.0029 -0.2248
 6777TP3     H120343   0.153   3.212   2.718  0.9442 -0.8052 -1.4414
 6777TP3     H220344   0.150   3.333   2.626  0.4835 -0.5020 -1.0375
 6778TP3      O20345   0.122   3.471   1.706  0.0946  0.1582  0.1987
 6778TP3     H120346   0.061   3.536   1.741  1.5428  1.9786 -0.4796
 6778TP3     H220347   0.109   3.475   1.611  1.3731  0.7449  0.0251
 6779TP3      O20348   0.318   3.167   2.798 -0.3020 -1.2634  0.3734
 6779TP3     H120349   0.324   3.158   2.893  0.6032 -2.1195  0.2471
 6779TP3     H220350   0.401   3.134   2.765 -0.3840 -0.4607 -0.6963
 6780TP3      O20351   5.564   2.847   2.054  0.2676  0.1907 -0.1039
 6780TP3     H120352   5.476   2.824   2.026  0.5338 -0.6643 -0.2621
 6780TP3     H220353   5.588   2.780   2.118  0.1281  1.4522  1.3188
 6781TP3      O20354   5.778   2.056   3.184 -0.0495 -0.1470 -0.1168
 6781TP3     H120355   5.726   2.135   3.200  1.3369  0.8260 -0.1716
 6781TP3     H220356   5.813   2.034   3.271  0.6133  0.0822 -0.3211
 6782TP3      O20357   0.337   1.342   2.903  0.2528 -0.0627  0.2399
 6782TP3     H120358   0.285   1.306   2.831  0.7101 -0.6210  0.1851
 6782TP3     H220359   0.289   1.315   2.982  0.5045 -0.6545  0.1929
 6783TP3      O20360   0.292   3.952   2.307 -0.0017 -0.0895  0.2576
 6783TP3     H120361   0.381   3.988   2.305 -0.2173  0.5606  1.6119
 6783TP3     H220362   0.297   3.880   2.371 -0.7931  0.9530  1.5336
 6784TP3      O20363   5.973   1.977   3.681 -0.1606 -0.6205 -0.1800
 6784TP3     H120364   5.947   1.981   3.773  0.8277 -0.0423  0.0932
 6784TP3     H220365   5.905   1.924   3.639 -2.0792  1.3198  0.3474
 6785TP3      O20366   5.484   1.900   3.149  0.6027  0.1131 -0.2001
 6785TP3     H120367   5.414   1.937   3.095  1.4311  1.9951 -0.0886
 6785TP3     H220368   5.557   1.962   3.139  3.6619 -3.4298 -3.1826
 6786TP3      O20369   5.850   2.051   1.796  0.9250  0.6093  0.3293
 6786TP3     H120370   5.883   2.023   1.881 -0.9400  0.5076  1.0418
 6786TP3     H220371   5.755   2.053   1.805  0.6908  0.9579 -1.6408
 6787TP3      O20372   0.304   3.998   3.462  0.3186  0.2431  0.2295
 6787TP3     H120373   0.266   3.988   3.375 -1.6087  1.2704  0.8976
 6787TP3     H220374   0.332   3.909   3.486  1.2756  0.0119 -1.5604
 6788TP3      O20375   5.085   1.651   3.604  0.2253  0.8451 -0.0960
 6788TP3     H120376   5.040   1.578   3.647 -0.5997  1.1771 -0.3654
 6788TP3     H220377   5.060   1.728   3.656  0.5689  1.0213 -0.1904
 6789TP3      O20378   0.338   3.436   1.072  0.7000 -0.4722 -0.3806
 6789TP3     H120379   0.252   3.445   1.031 -0.1718 -0.5014  1.3466
 6789TP3     H220380   0.398   3.481   1.012 -0.7785  1.0401 -0.8196
 6790TP3      O20381   5.451   2.682   3.888 -0.0717  0.4395 -0.3853
 6790TP3     H120382   5.453   2.749   3.819 -1.8196  0.5200 -0.3995
 6790TP3     H220383   5.501   2.609   3.852  1.1538  1.4024 -0.7115
 6791TP3      O20384   4.745   2.109   1.513  0.5014  0.0037 -0.1769
 6791TP3     H120385   4.726   2.153   1.431  1.5860 -0.4780 -0.7102
 6791TP3     H220386   4.671   2.051   1.527 -1.5054  2.6698  1.1029
 6792TP3      O20387   0.061   2.995   3.903  0.0108 -0.0832  0.6413
 6792TP3     H120388   0.076   3.088   3.889 -0.8369  0.0959  0.8805
 6792TP3     H220389   0.140   2.964   3.947  0.2575  0.5362  0.6421
 6793TP3      O20390   5.003   4.096   2.914 -0.4624 -0.2824  0.1246
 6793TP3     H120391   4.926   4.152   2.910 -0.1634  0.2612  1.3990
 6793TP3     H220392   5.045   4.120   2.997  1.6368  0.1793 -1.0088
 6794TP3      O20393   0.411   2.471   4.277 -0.4320  0.4073  0.5485
 6794TP3     H120394   0.399   2.449   4.369 -1.2292 -0.2496  0.2997
 6794TP3     H220395   0.349   2.415   4.230  2.7971 -2.4131 -0.7956
 6795TP3      O20396   0.158   1.716   3.067  0.1633 -0.4426  0.7189
 6795TP3     H120397   0.150   1.632   3.112 -0.4189 -0.8104 -0.0571
 6795TP3     H220398   0.234   1.705   3.009 -0.2760 -0.6497  0.1741
 6796TP3      O20399   5.632   2.843   2.731  0.5093  0.7480  0.5961
 6796TP3     H120400   5.641   2.883   2.817  0.8054 -0.3827  1.1079
 6796TP3     H220401   5.664   2.910   2.670  2.2285  0.8299  1.5317
 6797TP3      O20402   5.693   2.569   2.775  0.0062  0.4533  0.6103
 6797TP3     H120403   5.744   2.560   2.855  0.2518  1.9497  0.6477
 6797TP3     H220404   5.696   2.662   2.755 -1.4790  0.3582 -0.2053
 6798TP3      O20405   5.681   3.354   2.823  0.3501  0.4753 -0.3876
 6798TP3     H120406   5.717   3.307   2.748  1.8351 -3.0413  2.2236
 6798TP3     H220407   5.754   3.408   2.855  0.1819  0.8312 -0.5947
 6799TP3      O20408   5.746   3.730   2.026 -0.0632  0.4494 -0.2031
 6799TP3     H120409   5.700   3.708   1.945  0.6068  1.3205 -0.8376
 6799TP3     H220410   5.707   3.673   2.092 -1.5396  0.6506 -0.8632
 6800TP3      O20411   1.115   4.232   2.636 -0.0272  0.1179 -0.2174
 6800TP3     H120412   1.021   4.239   2.620 -0.5820 -0.3995  2.3818
 6800TP3     H220413   1.125   4.244   2.730  2.1974 -2.3712  0.0007
 6801TP3      O20414   5.663   2.340   3.229  0.1523 -0.3306  0.4920
 6801TP3     H120415   5.706   2.413   3.275 -0.1122 -0.8697  1.6321
 6801TP3     H220416   5.582   2.325   3.278 -0.4788 -0.4875 -0.5750
 6802TP3      O20417   0.045   1.668   4.262  0.7158 -0.2621  1.1949
 6802TP3     H120418   0.001   1.740   4.306  0.9493  0.8612 -0.3230
 6802TP3     H220419   0.134   1.667   4.298  0.8457  0.5090  0.8988
 6803TP3      O20420   0.034   3.604   3.846 -0.3299  0.2915  0.3333
 6803TP3     H120421  -0.057   3.633   3.855 -0.5381 -0.6642  1.5281
 6803TP3     H220422   0.045   3.536   3.913  1.1708  0.1510 -0.0098
 6804TP3      O20423   0.874   1.857   3.404  0.3617  0.7973 -0.1202
 6804TP3     H120424   0.843   1.767   3.410  0.5317  0.7116 -0.4865
 6804TP3     H220425   0.813   1.908   3.458 -0.9788  0.7808 -1.5386
 6805TP3      O20426   5.103   2.821   3.308  0.1918  0.7132  0.0879
 6805TP3     H120427   5.020   2.798   3.268  0.9974 -2.5576  0.0337
 6805TP3     H220428   5.167   2.766   3.263  2.1062  1.6932  1.4793
 6806TP3      O20429   4.747   3.854   4.551 -0.1565 -0.3805 -0.4891
 6806TP3     H120430   4.742   3.759   4.562 -0.9534 -0.3909 -0.8164
 6806TP3     H220431   4.766   3.867   4.458  0.7978 -0.2275 -0.2768
 6807TP3      O20432   5.753   2.987   2.928 -0.3275 -0.7398 -0.0765
 6807TP3     H120433   5.823   3.051   2.919 -0.0018 -1.2836 -2.1148
 6807TP3     H220434   5.730   2.988   3.021  0.4576  1.4549  0.1492
 6808TP3      O20435   4.614   2.053   3.750  0.2311 -0.1497  0.1035
 6808TP3     H120436   4.629   2.057   3.845 -0.1053  1.4688  0.1208
 6808TP3     H220437   4.678   2.113   3.714  0.3862 -0.7965 -0.7117
 6809TP3      O20438   5.019   3.157   1.378  0.5133 -0.6478 -1.0977
 6809TP3     H120439   5.104   3.197   1.358  1.4898 -1.0881  1.7255
 6809TP3     H220440   5.032   3.064   1.362  1.9049 -1.2968  2.6562
 6810TP3      O20441   0.118   1.777   2.577 -0.3008  0.4434  0.1654
 6810TP3     H120442   0.167   1.697   2.600 -0.8960  0.1674  0.4910
 6810TP3     H220443   0.053   1.786   2.646 -1.6802 -0.0097 -1.0223
 6811TP3      O20444   0.679   2.473   3.217  0.3759 -0.2807 -0.1887
 6811TP3     H120445   0.655   2.523   3.139 -3.3195 -3.3723 -1.3633
 6811TP3     H220446   0.740   2.407   3.186 -0.7551 -1.2324 -0.4899
 6812TP3      O20447   0.253   2.438   3.070 -0.4259 -0.3155 -0.0881
 6812TP3     H120448   0.283   2.442   3.161  0.0520  1.3030 -0.2921
 6812TP3     H220449   0.161   2.462   3.075 -0.4886 -0.5646 -0.0056
 6813TP3      O20450   0.186   3.145   2.160  0.2247 -0.4918  0.6533
 6813TP3     H120451   0.116   3.199   2.124  2.1594  1.8296  0.1686
 6813TP3     H220452   0.175   3.152   2.255  1.0090  1.6715  0.6408
 6814TP3      O20453   5.244   2.519   2.472 -0.1938  0.1280 -0.2567
 6814TP3     H120454   5.282   2.596   2.514  2.8731 -0.6831 -1.2610
 6814TP3     H220455   5.165   2.500   2.522 -0.8912  3.6843  0.2158
 6815TP3      O20456   5.540   2.678   3.588 -0.2783 -0.5578 -0.7216
 6815TP3     H120457   5.562   2.726   3.508  1.2021  0.2759  0.1566
 6815TP3     H220458   5.621   2.634   3.613 -0.5439 -0.3060  0.6665
 6816TP3      O20459   0.700   1.811   4.181 -0.4242  0.6942 -0.2971
 6816TP3     H120460   0.760   1.884   4.199 -0.2931  0.7422 -0.9121
 6816TP3     H220461   0.689   1.768   4.266  0.0819  0.9878 -0.0774
 6817TP3      O20462   5.372   2.550   5.487 -0.7664  0.5055  0.6460
 6817TP3     H120463   5.345   2.473   5.436  0.0306 -0.1234  1.1638
 6817TP3     H220464   5.291   2.599   5.499 -1.3690 -0.4555  0.6531
 6818TP3      O20465   0.468   2.892   4.609  0.0454 -0.0155  0.4950
 6818TP3     H120466   0.436   2.854   4.691  1.6279  0.7765  1.5412
 6818TP3     H220467   0.542   2.837   4.585 -0.2084 -0.0452 -0.2377
 6819TP3      O20468   5.374   2.930   5.669 -0.7787  0.4123  0.2811
 6819TP3     H120469   5.337   2.967   5.749 -3.6021 -1.6134  0.0401
 6819TP3     H220470   5.449   2.878   5.700 -0.1990  1.7471  1.2253
 6820TP3      O20471   5.855   2.837   3.810  0.4006  0.2431  0.5686
 6820TP3     H120472   5.777   2.892   3.816  0.6017  0.4784  0.9921
 6820TP3     H220473   5.929   2.897   3.820  0.7785  0.5244 -2.7967
 6821TP3      O20474   0.823   3.239   4.007  0.0441  0.1720  0.0583
 6821TP3     H120475   0.749   3.284   4.049 -0.1469  0.4380 -0.5587
 6821TP3     H220476   0.792   3.149   3.994 -0.6734  0.5927 -1.3785
 6822TP3      O20477   0.036   2.282   5.133 -0.7161  0.4451 -0.2334
 6822TP3     H120478   0.087   2.221   5.186 -0.6126  1.1963  0.5658
 6822TP3     H220479  -0.037   2.231   5.100  0.3185 -0.5498 -1.0396
 6823TP3      O20480   5.573   2.692   5.376  0.0593 -0.3529 -0.3042
 6823TP3     H120481   5.506   2.630   5.403 -0.6254  0.5550  0.1408
 6823TP3     H220482   5.626   2.705   5.454 -1.0133  1.1221  0.2303
 6824TP3      O20483   5.453   3.296   3.724  0.1095 -0.4489  0.8343
 6824TP3     H120484   5.376   3.248   3.756  1.3395 -1.9522  1.6364
 6824TP3     H220485   5.425   3.388   3.726 -1.6025 -0.9312  1.2868
 6825TP3      O20486   5.669   3.054   5.437 -0.0912 -0.0926  0.4234
 6825TP3     H120487   5.715   2.977   5.404 -0.3593 -0.4353  0.8427
 6825TP3     H220488   5.582   3.048   5.398 -0.2406 -0.2208  0.7714
 6826TP3      O20489   5.654   3.091   4.969 -0.0753  0.2088  0.4663
 6826TP3     H120490   5.597   3.079   4.893  1.3585  1.9767 -0.9991
 6826TP3     H220491   5.659   3.186   4.981  1.7077  0.0644  1.1796
 6827TP3      O20492   5.521   1.579   5.009 -0.3481  0.3639  0.2852
 6827TP3     H120493   5.545   1.603   5.099  2.2245  2.0446 -0.7546
 6827TP3     H220494   5.501   1.485   5.014  1.3068  0.0482  2.3233
 6828TP3      O20495   0.324   2.987   5.077  0.1239  0.6972 -0.0448
 6828TP3     H120496   0.261   2.952   5.014 -1.4498 -2.0424  2.7256
 6828TP3     H220497   0.272   3.045   5.133  0.7056  0.6256  0.5802
 6829TP3      O20498   0.413   2.789   4.879 -0.6855 -0.0675 -0.0823
 6829TP3     H120499   0.333   2.832   4.909  0.2110  1.5946  0.0507
 6829TP3     H220500   0.477   2.807   4.948 -0.3831 -2.1228  0.2474
 6830TP3      O20501   0.447   3.466   3.670 -0.2504 -0.1054 -0.4674
 6830TP3     H120502   0.407   3.423   3.745  0.4756  0.7259  0.4079
 6830TP3     H220503   0.487   3.545   3.705  0.0862  0.3100 -1.7293
 6831TP3      O20504   0.299   3.236   5.195 -0.2478  0.7488  0.1175
 6831TP3     H120505   0.359   3.248   5.121 -2.6475  2.1638 -1.7825
 6831TP3     H220506   0.351   3.253   5.273  1.7966  1.8475 -1.4162
 6832TP3      O20507   5.793   1.432   3.639  0.2231  0.0142  0.2995
 6832TP3     H120508   5.723   1.489   3.608 -0.0594  0.1274  1.1205
 6832TP3     H220509   5.759   1.393   3.719  0.0478 -2.0255 -0.7033
 6833TP3      O20510   0.452   1.941   4.911  0.9651 -0.1954  0.3255
 6833TP3     H120511   0.445   1.997   4.988 -2.0911  0.3305 -0.1720
 6833TP3     H220512   0.461   2.002   4.838 -0.7963 -0.3447 -0.0724
 6834TP3      O20513   5.754   3.343   5.507 -0.1739  1.2041 -0.0936
 6834TP3     H120514   5.684   3.378   5.453 -0.7369  1.5578  0.8375
 6834TP3     H220515   5.760   3.251   5.483  0.9638  1.7540 -2.1951
 6835TP3      O20516   0.051   2.304   3.288 -0.7238 -0.1811 -0.2098
 6835TP3     H120517  -0.008   2.233   3.311 -1.7910  1.0206  0.9820
 6835TP3     H220518   0.138   2.274   3.315 -1.1269 -1.0860  0.1002
 6836TP3      O20519   5.704   3.205   4.220  0.3021 -0.2453 -0.2770
 6836TP3     H120520   5.716   3.132   4.281  1.6840  1.3801  1.5221
 6836TP3     H220521   5.792   3.220   4.184 -0.2052 -0.1984 -1.5536
 6837TP3      O20522   4.791   3.572   4.547 -0.1559  0.4327  0.3552
 6837TP3     H120523   4.874   3.559   4.593  0.6516 -0.2407 -1.1914
 6837TP3     H220524   4.816   3.574   4.454 -1.9334 -0.2889 -0.1766
 6838TP3      O20525   5.860   1.949   3.956  0.4065 -0.2904 -0.1304
 6838TP3     H120526   5.800   1.882   3.986 -0.7172  0.3073 -0.9748
 6838TP3     H220527   5.846   2.022   4.016  1.2093 -0.5819  0.4317
 6839TP3      O20528   5.742   2.677   4.700 -0.1235 -0.3219 -0.0242
 6839TP3     H120529   5.718   2.750   4.643 -2.2700 -0.3230  0.7977
 6839TP3     H220530   5.759   2.718   4.785  0.9377 -0.5603 -0.1064
 6840TP3      O20531   4.686   4.223   4.206  0.2379 -0.6448  0.7951
 6840TP3     H120532   4.623   4.164   4.166 -1.2976 -0.3015  2.5570
 6840TP3     H220533   4.640   4.259   4.282  2.6396 -0.5439  2.3054
 6841TP3      O20534   5.960   3.201   4.587  0.1490 -0.3634  0.4939
 6841TP3     H120535   5.974   3.200   4.492  0.2499  3.1554  0.3251
 6841TP3     H220536   6.027   3.259   4.620 -3.3710  3.4657  1.7962
 6842TP3      O20537   5.400   2.227   4.915  0.3285 -0.1778 -0.5595
 6842TP3     H120538   5.382   2.249   4.824 -1.3024 -0.8423 -0.4332
 6842TP3     H220539   5.321   2.255   4.962  0.4360 -1.3776  0.3740
 6843TP3      O20540   5.771   3.077   5.688 -0.2948 -0.1909  0.2507
 6843TP3     H120541   5.713   3.006   5.716 -0.2426  0.0570  0.9901
 6843TP3     H220542   5.755   3.084   5.593 -0.9369 -0.6011  0.3204
 6844TP3      O20543   5.955   4.130   5.524  0.2130  0.3445  0.4078
 6844TP3     H120544   5.887   4.128   5.457 -1.3854  1.3990  1.8895
 6844TP3     H220545   5.910   4.102   5.604  1.3774  1.5144  1.5292
 6845TP3      O20546   0.608   3.008   5.224 -0.1737  0.5184  0.1691
 6845TP3     H120547   0.679   3.005   5.289  0.7440  0.7318 -0.7921
 6845TP3     H220548   0.538   2.956   5.263  0.4561  0.4070  1.2099
 6846TP3      O20549   0.052   3.244   3.812 -0.5031  0.0165  0.1811
 6846TP3     H120550   0.028   3.195   3.733 -2.1156 -0.7337  1.1054
 6846TP3     H220551   0.070   3.333   3.780 -0.3991 -0.4499 -1.1180
 6847TP3      O20552   5.694   3.719   5.621  0.2369 -0.1254  0.3007
 6847TP3     H120553   5.635   3.760   5.684 -1.3572  0.0040 -1.2103
 6847TP3     H220554   5.636   3.672   5.560  1.5832  0.7073 -1.7509
 6848TP3      O20555   0.144   2.728   5.934  0.7680 -0.8678  0.4420
 6848TP3     H120556   0.153   2.811   5.982 -0.3073 -0.1239 -0.5809
 6848TP3     H220557   0.216   2.730   5.870  0.4159 -0.4545  0.0522
 6849TP3      O20558   0.284   3.493   5.889  0.2841 -1.1136 -0.5175
 6849TP3     H120559   0.291   3.444   5.807  1.7762 -1.4854 -0.2041
 6849TP3     H220560   0.296   3.585   5.862  3.0379 -1.4023 -0.5236
 6850TP3      O20561   5.116   3.019   4.670 -0.2467 -0.3910 -0.2477
 6850TP3     H120562   5.053   3.004   4.741  0.8888 -0.1694  0.8457
 6850TP3     H220563   5.137   2.932   4.637  2.0513 -0.9403  2.2812
 6851TP3      O20564   0.253   1.966   4.536 -0.0359  0.4377 -0.5199
 6851TP3     H120565   0.233   1.995   4.447  0.3579  1.3793 -0.3075
 6851TP3     H220566   0.298   2.040   4.576 -0.5710  0.1675  0.6060
 6852TP3      O20567   0.399   2.492   5.583 -0.2809  0.2406  0.3885
 6852TP3     H120568   0.382   2.409   5.626 -1.7073 -1.2750 -2.7306
 6852TP3     H220569   0.469   2.473   5.520 -0.2184  1.5545  0.0183
 6853TP3      O20570   5.640   2.369   5.944 -0.4726  0.0615  0.3850
 6853TP3     H120571   5.733   2.368   5.924 -0.2008 -1.4094  1.5726
 6853TP3     H220572   5.635   2.359   6.039 -1.8431  0.3799  0.3727
 6854TP3      O20573   5.547   3.033   3.182  0.2011  0.2481  0.7142
 6854TP3     H120574   5.609   3.077   3.239  0.0313 -0.7657  1.7425
 6854TP3     H220575   5.535   3.092   3.108 -1.2701  2.7205  2.7529
 6855TP3      O20576   5.045   3.738   3.820 -0.3220  0.4829 -0.4661
 6855TP3     H120577   5.017   3.702   3.736  0.3966  0.5102 -0.7180
 6855TP3     H220578   5.057   3.831   3.804  1.9390  0.1630 -0.9231
 6856TP3      O20579   5.464   2.556   5.777 -0.2239 -0.5106  0.4432
 6856TP3     H120580   5.538   2.515   5.821  0.9411 -0.1955 -1.1457
 6856TP3     H220581   5.448   2.501   5.700 -0.8670  0.0939  0.1257
 6857TP3      O20582   0.357   4.525   0.397 -0.3420  0.7911 -0.0068
 6857TP3     H120583   0.305   4.454   0.434  0.0699  0.2398 -0.4649
 6857TP3     H220584   0.327   4.532   0.307 -0.4343  1.2535  0.0588
 6858TP3      O20585   5.514   3.206   5.954 -0.3081 -0.3184  0.1947
 6858TP3     H120586   5.574   3.138   5.986 -0.8962 -0.2736  1.4423
 6858TP3     H220587   5.428   3.163   5.954 -0.4354 -0.0804 -0.6471
 6859TP3      O20588   0.165   3.628   5.028  0.1791  1.2686 -0.3256
 6859TP3     H120589   0.207   3.684   5.093  1.2023  0.0207  0.1354
 6859TP3     H220590   0.215   3.642   4.948 -0.6134  2.2356 -0.6820
 6860TP3      O20591   5.535   1.355   5.382  0.7028  0.6247  0.2859
 6860TP3     H120592   5.508   1.264   5.380  0.3921  0.7278 -0.8338
 6860TP3     H220593   5.454   1.405   5.389  0.1825  1.0163 -4.9387
 6861TP3      O20594   5.971   2.434   0.564 -0.5011 -0.0895 -0.3097
 6861TP3     H120595   5.957   2.512   0.618  1.5161 -1.6563  2.7658
 6861TP3     H220596   6.049   2.454   0.513 -0.8028  0.3893 -0.5958
 6862TP3      O20597   5.630   3.591   5.308  0.1744  0.2470  0.4309
 6862TP3     H120598   5.577   3.650   5.254 -1.1198  0.6037  2.0169
 6862TP3     H220599   5.572   3.519   5.330  0.9290 -0.2986  0.6992
 6863TP3      O20600   0.506   2.194   5.956  0.7553 -0.0655  0.3664
 6863TP3     H120601   0.466   2.124   6.007  2.0608 -2.7163 -1.9786
 6863TP3     H220602   0.538   2.256   6.022 -0.9800 -1.3314  2.5313
 6864TP3      O20603   5.080   1.751   5.573  0.3560  0.3869 -0.1810
 6864TP3     H120604   5.093   1.776   5.481  2.3260 -1.2503 -0.4088
 6864TP3     H220605   5.148   1.798   5.621  1.6606 -1.4463 -0.1132
 6865TP3      O20606   5.595   2.844   5.806  0.5684  0.1440 -0.1426
 6865TP3     H120607   5.655   2.883   5.871  1.4252 -0.8279 -0.3292
 6865TP3     H220608   5.549   2.776   5.854 -0.6302  1.0705  0.0718
 6866TP3      O20609   5.826   3.884   4.661 -0.3013 -0.6863  0.7359
 6866TP3     H120610   5.838   3.979   4.656 -0.1964 -0.6316  1.7631
 6866TP3     H220611   5.735   3.870   4.636 -0.1940 -0.3681  0.1361
 6867TP3      O20612   5.914   3.710   0.583 -0.3278 -0.1513  0.5498
 6867TP3     H120613   5.932   3.673   0.497  0.6750  0.9162  0.2818
 6867TP3     H220614   5.993   3.758   0.606 -1.1769  0.9155  1.3565
 6868TP3      O20615   4.593   3.208   2.111 -0.9040 -0.1508 -0.2096
 6868TP3     H120616   4.640   3.128   2.087 -0.7455  0.0317 -0.5134
 6868TP3     H220617   4.531   3.222   2.039  0.0981  0.8173 -0.9072
 6869TP3      O20618   0.646   4.289   0.718  0.1955  0.0218  0.0992
 6869TP3     H120619   0.740   4.300   0.710  0.1997 -1.1866 -2.9654
 6869TP3     H220620   0.634   4.209   0.769  0.8574 -0.2379 -0.1504
 6870TP3      O20621   0.609   4.882   0.067 -0.3597 -0.6004 -0.0497
 6870TP3     H120622   0.643   4.834  -0.008 -1.0420 -0.6486 -0.3346
 6870TP3     H220623   0.685   4.897   0.123  0.4212  0.7108 -1.4304
 6871TP3      O20624   4.507   5.841   1.413 -0.2362 -0.5540 -0.4121
 6871TP3     H120625   4.419   5.821   1.381 -0.2506 -0.5138 -0.3984
 6871TP3     H220626   4.492   5.873   1.503 -0.1374 -1.2986 -0.1260
 6872TP3      O20627   5.173   4.928   0.854 -0.5432  0.0877  0.1449
 6872TP3     H120628   5.234   4.967   0.791  2.6890 -1.8936  1.7830
 6872TP3     H220629   5.145   5.001   0.909 -0.0585  1.1475 -0.9764
 6873TP3      O20630   0.468   5.394   0.980 -0.4829  0.1630  0.1221
 6873TP3     H120631   0.407   5.461   0.948  0.3263  0.9315  0.1482
 6873TP3     H220632   0.554   5.426   0.954 -0.0208 -0.5086  0.7881
 6874TP3      O20633   4.873   3.886   0.327  0.2999 -0.0534 -0.3779
 6874TP3     H120634   4.803   3.821   0.313 -0.5375  0.4229  1.3375
 6874TP3     H220635   4.841   3.940   0.399  1.6678  1.3275 -0.7598
 6875TP3      O20636   5.079   5.193   5.842  0.6970  0.6149  0.1004
 6875TP3     H120637   5.029   5.193   5.760  1.2522  0.4168 -0.2460
 6875TP3     H220638   5.026   5.244   5.903  0.0708  0.3956 -0.2566
 6876TP3      O20639   0.086   4.916   1.213 -0.5965  0.0749  0.1084
 6876TP3     H120640   0.147   4.975   1.168 -1.7860  0.9834 -0.3627
 6876TP3     H220641   0.141   4.868   1.275  0.6757  0.5147 -0.6319
 6877TP3      O20642   5.918   4.172   3.109 -0.1918  0.0756 -0.3603
 6877TP3     H120643   5.838   4.143   3.066 -0.1968  0.8407 -0.8677
 6877TP3     H220644   5.972   4.093   3.113 -0.7672 -0.3294 -0.4618
 6878TP3      O20645   5.944   5.258   6.034 -0.5372 -0.1203 -0.0780
 6878TP3     H120646   5.920   5.182   5.981  1.0711 -1.0197  0.4008
 6878TP3     H220647   5.999   5.311   5.976 -1.8345  0.8279 -0.4835
 6879TP3      O20648   5.191   5.718   0.451  0.5291  0.6239 -0.6116
 6879TP3     H120649   5.213   5.810   0.460 -0.4005  0.9759 -1.6190
 6879TP3     H220650   5.096   5.715   0.465  0.5672 -0.1906 -0.4787
 6880TP3      O20651   5.720   5.531   1.931 -0.3090  0.2051  0.0481
 6880TP3     H120652   5.755   5.592   1.866 -0.0690 -0.0021 -0.0166
 6880TP3     H220653   5.750   5.566   2.015 -1.1493  0.8295  0.1007
 6881TP3      O20654   5.093   5.671   5.926 -0.0244 -0.3256 -0.0941
 6881TP3     H120655   5.113   5.640   6.014  0.0949 -1.5807 -0.5398
 6881TP3     H220656   5.162   5.734   5.906 -0.1410  0.0824  0.7632
 6882TP3      O20657   5.335   5.285   0.378  0.1767 -0.1729  0.2710
 6882TP3     H120658   5.423   5.310   0.405  0.5130  1.1398 -1.7506
 6882TP3     H220659   5.343   5.266   0.284 -1.4245 -1.4930  0.3465
 6883TP3      O20660   5.808   4.664   1.344  0.2767  0.1401  0.1192
 6883TP3     H120661   5.772   4.694   1.427  1.2861 -0.5610  0.8265
 6883TP3     H220662   5.782   4.732   1.281  0.1310  1.0555  1.1424
 6884TP3      O20663   0.335   5.538   0.139  0.8379 -0.3547 -0.2657
 6884TP3     H120664   0.333   5.457   0.190 -1.2159 -1.0724 -1.3483
 6884TP3     H220665   0.249   5.577   0.152  0.5298 -0.1369 -2.4578
 6885TP3      O20666   5.819   3.769   1.253  0.4577 -0.1488  0.1585
 6885TP3     H120667   5.760   3.815   1.192  1.9888  0.8960 -0.6212
 6885TP3     H220668   5.801   3.809   1.338 -1.9236 -1.8318  0.5284
 6886TP3      O20669   0.111   3.833   0.745 -0.1287 -0.2157  0.0723
 6886TP3     H120670   0.093   3.927   0.749 -0.3339 -0.2484 -0.0720
 6886TP3     H220671   0.084   3.801   0.831  1.5381  0.1264  0.7517
 6887TP3      O20672   5.487   5.168   1.581  0.0693 -0.3014 -0.1538
 6887TP3     H120673   5.555   5.230   1.607  1.1111 -1.0534 -0.9872
 6887TP3     H220674   5.475   5.111   1.657  0.1787 -0.0107  0.0826
 6888TP3      O20675   0.134   4.236   1.246 -0.3920 -0.0893  0.1578
 6888TP3     H120676   0.047   4.258   1.278 -0.7666 -0.6560 -0.4324
 6888TP3     H220677   0.189   4.233   1.324 -0.5628  1.7319  0.3867
 6889TP3      O20678   5.802   4.977   1.189  0.2126 -0.0635 -0.2644
 6889TP3     H120679   5.761   4.899   1.152  0.9836 -0.4311 -0.3813
 6889TP3     H220680   5.896   4.964   1.173  0.3795  0.7272  0.0239
 6890TP3      O20681   0.375   0.111   0.608 -0.2864 -0.1052 -0.6785
 6890TP3     H120682   0.335   0.177   0.665 -0.8155 -2.3357  1.7115
 6890TP3     H220683   0.304   0.081   0.553 -0.6467 -0.3308 -0.1041
 6891TP3      O20684   5.723   3.683   1.614  0.3237  0.0397 -0.1015
 6891TP3     H120685   5.778   3.739   1.668 -0.9904  0.4245  0.8780
 6891TP3     H220686   5.674   3.743   1.558 -0.4034 -0.1803  0.2909
 6892TP3      O20687   0.321   4.193   2.072 -0.1780  0.4500  0.5117
 6892TP3     H120688   0.393   4.255   2.059  1.1324 -0.6775  1.9655
 6892TP3     H220689   0.313   4.186   2.167 -0.7708 -1.0544  0.3783
 6893TP3      O20690   5.896   4.900   2.749  0.1346 -0.6137  0.2170
 6893TP3     H120691   5.853   4.960   2.689  0.1514 -1.7467 -0.9715
 6893TP3     H220692   5.831   4.830   2.762  1.5772 -2.4278 -1.7166
 6894TP3      O20693   5.285   5.081   1.398  0.1075 -0.2353  0.0846
 6894TP3     H120694   5.358   5.123   1.444  2.7771 -1.4734 -2.6249
 6894TP3     H220695   5.248   5.150   1.343 -0.9192  0.4426  1.5876
 6895TP3      O20696   5.555   4.602   0.498 -0.0049 -0.1831 -0.5691
 6895TP3     H120697   5.604   4.653   0.434  0.8916 -0.4189 -0.0815
 6895TP3     H220698   5.562   4.652   0.580 -0.3809 -0.3389 -0.4357
 6896TP3      O20699   0.742   5.236   1.743 -0.0208 -0.0624 -0.1443
 6896TP3     H120700   0.655   5.238   1.781  1.1364  0.5825  2.6735
 6896TP3     H220701   0.786   5.313   1.778  1.1656  0.6866 -2.9819
 6897TP3      O20702   5.359   4.939   2.031 -0.0901 -0.4640 -0.5083
 6897TP3     H120703   5.332   5.008   2.091  0.6340 -0.4281 -0.2159
 6897TP3     H220704   5.379   4.865   2.087  0.2337 -0.5462 -0.7307
 6898TP3      O20705   0.341   4.854   2.015 -0.0972 -0.0202 -0.3839
 6898TP3     H120706   0.300   4.878   1.932 -1.1911 -0.8014 -0.0907
 6898TP3     H220707   0.350   4.937   2.062  1.2715  0.5534 -1.5659
 6899TP3      O20708   5.505   3.276   0.294 -0.3869  0.4713  0.0820
 6899TP3     H120709   5.579   3.218   0.276 -1.4190 -0.7502 -0.3922
 6899TP3     H220710   5.525   3.316   0.378  1.2841  0.9481 -0.5115
 6900TP3      O20711   1.060   4.268   0.502 -0.2902 -0.0364 -0.1108
 6900TP3     H120712   1.024   4.180   0.502 -0.8273  0.1824 -0.6142
 6900TP3     H220713   1.154   4.255   0.519 -0.2562 -0.7469 -0.7935
 6901TP3      O20714   0.130   4.467   1.583  0.4182  0.2160 -0.0352
 6901TP3     H120715   0.147   4.418   1.664 -0.0498 -1.6670 -1.0167
 6901TP3     H220716   0.142   4.558   1.607  4.3765 -0.4312  1.2410
 6902TP3      O20717   5.461   4.987   1.151  0.1129  0.2149  0.2807
 6902TP3     H120718   5.384   4.966   1.204  0.0328  1.1218  0.5266
 6902TP3     H220719   5.506   5.056   1.200  0.1327  0.9447 -0.7482
 6903TP3      O20720   4.931   5.460   0.680 -0.1980 -0.3078 -0.0899
 6903TP3     H120721   4.918   5.509   0.598  0.7850 -1.5169 -1.0042
 6903TP3     H220722   4.842   5.448   0.714 -1.0304 -2.3850 -2.6012
 6904TP3      O20723   5.211   4.438   5.468 -0.2272  0.6370 -0.2467
 6904TP3     H120724   5.285   4.417   5.524  1.4214  2.2577 -1.6912
 6904TP3     H220725   5.139   4.386   5.503  2.0055 -2.5958  0.0212
 6905TP3      O20726   5.535   4.451   2.336  0.0248  0.2482 -0.6015
 6905TP3     H120727   5.595   4.414   2.271  0.5927  1.1491 -0.6018
 6905TP3     H220728   5.448   4.425   2.304  0.3753 -0.7937 -0.7694
 6906TP3      O20729   0.069   4.107   2.410 -0.1467 -0.0528 -0.4008
 6906TP3     H120730   0.137   4.073   2.353 -1.6350  1.4388 -3.2922
 6906TP3     H220731   0.114   4.173   2.463  1.0862 -0.7414 -0.5417
 6907TP3      O20732   5.148   3.615   2.329  0.1269 -0.3530  0.2218
 6907TP3     H120733   5.111   3.527   2.313  1.7902 -1.3700  1.6363
 6907TP3     H220734   5.241   3.606   2.309  0.1307  1.4403 -0.7165
 6908TP3      O20735   1.457   4.570   1.895 -0.1971  0.8021  0.0958
 6908TP3     H120736   1.498   4.505   1.951 -2.1468 -0.0091  0.6601
 6908TP3     H220737   1.518   4.582   1.823  2.1223  1.4394  2.0229
 6909TP3      O20738   5.642   5.122   2.010  0.9855 -0.1273  0.5433
 6909TP3     H120739   5.673   5.085   2.092  1.3678  0.1462  0.5286
 6909TP3     H220740   5.591   5.052   1.969  1.9923 -0.7621  0.3466
 6910TP3      O20741   5.465   4.962   1.786 -0.4849 -0.1554 -0.0918
 6910TP3     H120742   5.530   4.894   1.768  2.3229  2.5607 -1.0983
 6910TP3     H220743   5.425   4.935   1.868  0.4204 -3.0144 -0.4670
 6911TP3      O20744   5.916   5.000   1.926  0.0535 -0.1904 -0.0102
 6911TP3     H120745   5.951   5.072   1.874  0.1392  0.2113  0.5896
 6911TP3     H220746   5.843   5.038   1.975  1.0404 -0.0953  1.4731
 6912TP3      O20747   0.723   4.869   2.912 -0.8524  0.2662 -0.5286
 6912TP3     H120748   0.777   4.896   2.987 -0.8757  1.7818 -1.0203
 6912TP3     H220749   0.736   4.774   2.906  0.4734  0.3605  0.3711
 6913TP3      O20750   5.715   4.211   2.774 -0.5596  0.2220 -0.4766
 6913TP3     H120751   5.683   4.296   2.745 -1.4566  0.1778  0.3368
 6913TP3     H220752   5.712   4.156   2.695  0.7350  1.1056 -1.1865
 6914TP3      O20753   4.834   4.669   2.444 -0.7061 -0.3302 -0.0408
 6914TP3     H120754   4.865   4.578   2.444 -1.1702 -0.5273  1.4729
 6914TP3     H220755   4.870   4.707   2.365 -0.9436 -1.9875 -0.9974
 6915TP3      O20756   5.772   4.595   3.350  0.0943 -0.1865  0.3231
 6915TP3     H120757   5.806   4.525   3.406  1.6671  0.9062  0.7763
 6915TP3     H220758   5.817   4.674   3.379 -0.4393  0.7413 -1.2519
 6916TP3      O20759   0.461   4.742   2.961 -0.4042 -0.1581  0.3064
 6916TP3     H120760   0.510   4.820   2.936  2.5853 -1.9177  0.1659
 6916TP3     H220761   0.431   4.705   2.877 -0.0889 -0.1908  0.2061
 6917TP3      O20762   0.727   4.277   2.336 -0.0072  0.0776  0.9495
 6917TP3     H120763   0.784   4.350   2.312 -0.3391  0.0508  0.0183
 6917TP3     H220764   0.777   4.227   2.400  0.7530  0.4051  0.6268
 6918TP3      O20765   5.464   0.097   3.179  0.3369 -0.1589  0.0888
 6918TP3     H120766   5.399   0.099   3.109 -1.2169  0.1671  1.4795
 6918TP3     H220767   5.419   0.056   3.252  1.4976  0.6660  1.3122
 6919TP3      O20768   5.218   4.358   3.429 -0.2450 -0.3715  0.0293
 6919TP3     H120769   5.223   4.409   3.510 -0.8176  3.0598 -1.8946
 6919TP3     H220770   5.129   4.323   3.428 -0.6195  0.5271  0.3874
 6920TP3      O20771   0.022   5.176   2.801 -0.3170 -0.1131 -0.0190
 6920TP3     H120772  -0.045   5.244   2.810  0.3939  0.5503  0.4395
 6920TP3     H220773   0.089   5.200   2.865 -0.2622 -1.5303  0.5006
 6921TP3      O20774   5.379   4.926   3.594  0.3908 -0.0275 -0.1987
 6921TP3     H120775   5.368   4.843   3.546  1.3161 -0.7571  0.8002
 6921TP3     H220776   5.292   4.946   3.628 -0.0528 -0.0593 -1.2583
 6922TP3      O20777   0.732   3.839   1.380 -0.0902 -0.2007 -0.7931
 6922TP3     H120778   0.806   3.786   1.410  0.8435  0.9594 -1.0137
 6922TP3     H220779   0.655   3.792   1.413  0.6201 -2.2646 -1.8316
 6923TP3      O20780   5.951   4.422   2.889  0.2639  0.3731 -0.3894
 6923TP3     H120781   5.883   4.355   2.886 -0.5019  1.1449 -0.7650
 6923TP3     H220782   5.916   4.489   2.947  0.1059  1.3901 -1.6126
 6924TP3      O20783   5.382   5.115   3.892  0.1016 -0.2640  0.5965
 6924TP3     H120784   5.457   5.118   3.832 -0.0810  0.6156  0.3994
 6924TP3     H220785   5.421   5.120   3.979  0.3445 -1.1740  0.5556
 6925TP3      O20786   0.652   3.826   2.642 -0.4976  0.4228  0.0309
 6925TP3     H120787   0.588   3.808   2.711  0.6377 -0.9641  0.7596
 6925TP3     H220788   0.731   3.779   2.669  0.5439  1.3041 -1.3315
 6926TP3      O20789   5.908   3.858   3.177  0.6861 -0.8861  0.2307
 6926TP3     H120790   5.930   3.828   3.089  1.9728 -1.1908  0.6231
 6926TP3     H220791   5.873   3.780   3.221 -0.2116 -0.6672 -0.0772
 6927TP3      O20792   5.471   4.436   1.831 -0.0920 -0.5680  0.1697
 6927TP3     H120793   5.531   4.381   1.781 -2.4303 -1.2961 -2.0340
 6927TP3     H220794   5.409   4.471   1.766 -1.5905  0.7906  2.1720
 6928TP3      O20795   0.867   4.453   2.107 -0.0883  0.2139 -0.1287
 6928TP3     H120796   0.929   4.526   2.100 -0.8012  1.1074  1.9974
 6928TP3     H220797   0.823   4.451   2.022 -1.2853  3.4855  0.2496
 6929TP3      O20798   5.505   4.843   1.466  0.1387 -0.3627  0.2550
 6929TP3     H120799   5.422   4.809   1.431 -2.8251  2.3669  3.7562
 6929TP3     H220800   5.512   4.931   1.430  1.3375 -0.4218  0.3186
 6930TP3      O20801   4.945   4.706   2.190  0.3965 -0.5188  0.5537
 6930TP3     H120802   4.919   4.633   2.133  0.9683  0.2404 -0.7483
 6930TP3     H220803   4.983   4.771   2.129 -1.2277  1.4005  1.4779
 6931TP3      O20804   5.489   4.732   3.207  0.0538  0.2336  0.0143
 6931TP3     H120805   5.439   4.813   3.204  0.3087  0.4223  0.5818
 6931TP3     H220806   5.569   4.755   3.254 -0.5519 -0.6826  1.5897
 6932TP3      O20807   5.778   3.718   2.689 -0.2194  0.2985 -0.4682
 6932TP3     H120808   5.766   3.645   2.629 -0.1685  1.6562 -2.2319
 6932TP3     H220809   5.796   3.793   2.632  0.3225  1.5796  1.2836
 6933TP3      O20810   5.914   3.935   3.808  0.2741 -0.1422  0.0709
 6933TP3     H120811   5.965   3.997   3.757  1.7354 -0.8965  0.5744
 6933TP3     H220812   5.903   3.859   3.751 -0.7546  0.2039 -0.2199
 6934TP3      O20813   0.065   4.808   3.246  0.7256  0.5246 -0.0901
 6934TP3     H120814   0.134   4.871   3.268  0.8827  0.5617 -0.6652
 6934TP3     H220815   0.089   4.777   3.159 -0.3618  1.0676 -0.6027
 6935TP3      O20816   0.050   4.776   2.462  0.1705 -0.3954  0.2862
 6935TP3     H120817   0.044   4.685   2.490  0.5595 -0.4610  0.1664
 6935TP3     H220818   0.118   4.776   2.395 -1.9070 -0.5386 -1.9535
 6936TP3      O20819   5.116   4.717   2.394  0.0402 -0.1616  0.2650
 6936TP3     H120820   5.101   4.799   2.442  0.4205  0.6646 -0.9669
 6936TP3     H220821   5.058   4.724   2.317  1.0323 -0.4444 -0.5220
 6937TP3      O20822   5.145   5.290   3.941 -0.0175  0.1773 -0.2310
 6937TP3     H120823   5.152   5.260   3.850  0.1925 -0.8954  0.1125
 6937TP3     H220824   5.100   5.374   3.936  2.5868  1.6229 -1.5853
 6938TP3      O20825   5.628   5.367   3.670  0.6972  0.0886 -0.4637
 6938TP3     H120826   5.720   5.348   3.656  0.6239 -0.6828  0.0388
 6938TP3     H220827   5.613   5.349   3.763  0.3141  1.3906 -0.2493
 6939TP3      O20828   5.517   5.201   3.225 -0.2829 -0.3636 -0.3059
 6939TP3     H120829   5.482   5.171   3.309 -1.3952 -0.9358 -0.9500
 6939TP3     H220830   5.497   5.294   3.223  2.5174  0.4027  1.3769
 6940TP3      O20831   5.728   4.689   2.773 -0.0085  0.5561 -0.3637
 6940TP3     H120832   5.702   4.619   2.712 -1.7768  1.4026 -0.6304
 6940TP3     H220833   5.768   4.642   2.846 -1.6527 -0.8098 -0.2813
 6941TP3      O20834   5.904   3.808   2.912  0.4499 -0.2391  0.2128
 6941TP3     H120835   5.852   3.887   2.931 -0.1035 -0.5739  0.0951
 6941TP3     H220836   5.858   3.766   2.840  0.4276 -0.9724  0.6487
 6942TP3      O20837   0.395   4.355   2.691  0.3857  0.1275  0.1395
 6942TP3     H120838   0.328   4.360   2.759  1.6692  1.1057  1.3784
 6942TP3     H220839   0.346   4.334   2.611 -1.0893 -1.6542  1.4366
 6943TP3      O20840   0.454   4.049   4.294 -0.1574 -0.3639 -0.1507
 6943TP3     H120841   0.506   4.090   4.224 -1.6309  0.3438 -0.8681
 6943TP3     H220842   0.469   3.955   4.283  1.8719 -0.1514  0.3957
 6944TP3      O20843   5.608   4.451   2.643  0.3371  0.4087 -0.0031
 6944TP3     H120844   5.582   4.443   2.551 -0.0733 -1.4852  0.2346
 6944TP3     H220845   5.526   4.454   2.692  0.5128 -1.1247  0.4434
 6945TP3      O20846   5.845   4.984   2.392 -0.6789  0.0039 -0.3255
 6945TP3     H120847   5.883   4.901   2.420  0.0993 -0.1873 -1.8194
 6945TP3     H220848   5.804   4.964   2.308  1.3665  1.5301 -1.7799
 6946TP3      O20849   0.081   4.576   3.553 -0.1967 -0.3885  0.0585
 6946TP3     H120850   0.002   4.624   3.529  0.2284  0.2136 -0.1588
 6946TP3     H220851   0.149   4.610   3.496  0.8305  1.0249  2.0026
 6947TP3      O20852   5.540   3.888   4.588 -0.5256  0.3600  0.5717
 6947TP3     H120853   5.554   3.831   4.513  1.2407  0.4527  0.7710
 6947TP3     H220854   5.446   3.883   4.606 -0.9583  0.2152 -1.5223
 6948TP3      O20855   0.381   3.726   3.502 -0.1449 -0.2092 -0.2179
 6948TP3     H120856   0.375   3.698   3.593 -0.1009  0.6083  0.0388
 6948TP3     H220857   0.312   3.676   3.458 -1.4433  0.7865  0.6197
 6949TP3      O20858   0.214   4.265   3.945  0.6055 -0.7321  0.0742
 6949TP3     H120859   0.175   4.230   3.865 -0.0108 -0.9945  0.4837
 6949TP3     H220860   0.207   4.360   3.936 -0.2144 -0.7768  0.1796
 6950TP3      O20861   0.224   5.815   4.918 -0.6993 -0.0433 -0.1239
 6950TP3     H120862   0.146   5.764   4.895 -0.2697  0.0726 -1.9692
 6950TP3     H220863   0.189   5.899   4.947 -1.2737 -0.1550 -0.4639
 6951TP3      O20864   4.949   0.497   4.408 -0.0344 -0.4647 -0.5966
 6951TP3     H120865   4.889   0.502   4.334  0.0929 -1.6302 -0.8026
 6951TP3     H220866   4.899   0.452   4.476 -0.1462  0.5868  0.0459
 6952TP3      O20867   4.614   4.839   3.877  0.8765  0.0324  0.5342
 6952TP3     H120868   4.556   4.905   3.839  2.1579  1.4574  0.9594
 6952TP3     H220869   4.628   4.776   3.807  0.7674  0.9776 -0.3582
 6953TP3      O20870   5.639   4.172   4.838  0.1060  0.1380 -0.4693
 6953TP3     H120871   5.700   4.224   4.786 -1.1223 -0.6974 -2.9147
 6953TP3     H220872   5.575   4.141   4.775 -2.0907 -0.1619  1.7573
 6954TP3      O20873   5.511   4.761   3.763  0.0345 -0.6123  0.1824
 6954TP3     H120874   5.446   4.823   3.729 -0.5776 -1.4385 -0.1796
 6954TP3     H220875   5.595   4.799   3.737 -0.3027  0.3753  0.4967
 6955TP3      O20876   5.520   5.244   4.148  0.1773 -0.2087  0.3074
 6955TP3     H120877   5.479   5.330   4.160  0.4450  0.3040 -2.0354
 6955TP3     H220878   5.517   5.204   4.235 -0.2394  2.0322  1.3975
 6956TP3      O20879   0.423   3.612   4.886  0.1200 -0.5682  1.0266
 6956TP3     H120880   0.485   3.541   4.870 -1.5694 -2.1026  0.8785
 6956TP3     H220881   0.428   3.629   4.980  1.8510  0.4446  0.7867
 6957TP3      O20882   4.854   5.486   5.107  0.4649  0.6634  0.2018
 6957TP3     H120883   4.795   5.485   5.031  1.3096 -1.4477 -0.5066
 6957TP3     H220884   4.824   5.414   5.162  0.6267  1.3957  1.2608
 6958TP3      O20885   0.193   5.432   4.122 -0.3703 -0.3916 -0.1183
 6958TP3     H120886   0.116   5.437   4.177 -0.0577 -0.2382  0.3095
 6958TP3     H220887   0.243   5.511   4.142 -0.1278 -0.4612 -0.4312
 6959TP3      O20888   0.535   5.358   5.275  0.1148 -0.3196  0.3504
 6959TP3     H120889   0.535   5.427   5.341 -1.1563 -0.5890  0.6730
 6959TP3     H220890   0.447   5.362   5.236  0.3515 -1.1171 -0.3082
 6960TP3      O20891   0.131   4.311   5.384 -0.0616  0.5460 -0.4524
 6960TP3     H120892   0.069   4.246   5.417  0.8719  0.3575  1.0466
 6960TP3     H220893   0.105   4.326   5.293 -1.5928 -0.3473 -0.1949
 6961TP3      O20894   0.521   5.556   4.109 -0.4248 -0.1811 -0.4090
 6961TP3     H120895   0.531   5.482   4.169  0.3399  0.7491  0.6523
 6961TP3     H220896   0.603   5.604   4.117 -1.6694  1.9094  0.5313
 6962TP3      O20897   4.549   5.038   4.555  0.3785  0.3684  0.7050
 6962TP3     H120898   4.601   5.108   4.517  0.9455 -0.2050  0.4086
 6962TP3     H220899   4.608   4.962   4.556 -0.2773 -0.1480  0.8568
 6963TP3      O20900   5.243   3.223   3.905  0.3702 -0.8794 -0.1513
 6963TP3     H120901   5.194   3.142   3.916  1.1073 -1.2845  0.3096
 6963TP3     H220902   5.179   3.292   3.915 -0.3742 -1.4069 -1.0992
 6964TP3      O20903   4.684   4.804   4.552 -0.4872  0.2932  0.3072
 6964TP3     H120904   4.695   4.740   4.623 -0.2234  0.6041  0.5516
 6964TP3     H220905   4.609   4.772   4.502 -1.2481  0.5503  1.2580
 6965TP3      O20906   5.632   5.085   4.400 -0.0709 -0.2374  0.1233
 6965TP3     H120907   5.716   5.115   4.436 -0.1900 -0.5251  0.6415
 6965TP3     H220908   5.570   5.096   4.472 -0.6083  0.5147 -0.4335
 6966TP3      O20909   0.179   4.512   3.822 -0.4156 -0.4626 -0.0247
 6966TP3     H120910   0.269   4.543   3.832 -1.2569  1.8556  1.2528
 6966TP3     H220911   0.155   4.536   3.733  0.4750 -1.9143 -0.6843
 6967TP3      O20912   5.887   3.810   4.957  0.3862  0.1079  0.3701
 6967TP3     H120913   5.892   3.856   4.874  0.1827 -0.7070 -0.1095
 6967TP3     H220914   5.937   3.864   5.018 -0.1336  1.1173 -0.0818
 6968TP3      O20915   0.198   5.193   5.162  0.1022  0.8788 -0.0303
 6968TP3     H120916   0.243   5.129   5.217 -0.9555  0.1988  0.0842
 6968TP3     H220917   0.108   5.195   5.197  0.3668  3.3122  0.7362
 6969TP3      O20918   5.166   3.545   4.150  0.4129  0.1292  0.1069
 6969TP3     H120919   5.189   3.456   4.179 -0.4207  0.3595  1.5674
 6969TP3     H220920   5.200   3.602   4.220  0.8958  0.9739 -0.7889
 6970TP3      O20921   0.119   4.883   4.540 -0.8985  0.4707  0.0457
 6970TP3     H120922   0.079   4.808   4.584  0.5887 -0.3895 -0.0092
 6970TP3     H220923   0.064   4.897   4.462 -1.3795 -0.3459  0.2228
 6971TP3      O20924   0.194   4.304   3.588  0.1065 -0.3925  0.2978
 6971TP3     H120925   0.131   4.355   3.538  0.8699 -0.4623 -0.7619
 6971TP3     H220926   0.264   4.365   3.607  0.6253 -0.8109 -0.2365
 6972TP3      O20927   0.384   0.165   4.679 -0.6702  0.7802 -0.0133
 6972TP3     H120928   0.405   0.101   4.747  0.3903  2.4705  1.3285
 6972TP3     H220929   0.405   0.120   4.597  2.1479  0.0838  0.9728
 6973TP3      O20930   5.335   3.771   4.249  0.5543  0.5572 -0.4341
 6973TP3     H120931   5.424   3.744   4.225  0.9583  0.0450  1.4325
 6973TP3     H220932   5.327   3.860   4.215  1.1082 -0.0254 -2.1789
 6974TP3      O20933  -0.004   3.746   4.500  0.3408 -0.2391 -0.2208
 6974TP3     H120934   0.068   3.732   4.561  0.0591  0.3299  0.2624
 6974TP3     H220935  -0.063   3.805   4.547  1.9966  3.5909 -2.4664
 6975TP3      O20936   5.917   5.528   5.250  0.3173  0.0442  0.0564
 6975TP3     H120937   5.873   5.476   5.316 -0.5060  1.0212  0.2915
 6975TP3     H220938   5.978   5.467   5.208 -1.7270 -1.5499 -0.7641
 6976TP3      O20939   0.887   4.777   5.137  0.3612  0.2812  0.0143
 6976TP3     H120940   0.882   4.867   5.106 -0.1140  0.6832  1.2076
 6976TP3     H220941   0.950   4.780   5.209 -0.0716 -0.2285  0.4277
 6977TP3      O20942   0.364   4.873   4.955 -0.2922 -0.1807 -0.0218
 6977TP3     H120943   0.423   4.799   4.941  0.3247  0.2527  0.2616
 6977TP3     H220944   0.370   4.925   4.875 -0.3002 -0.1405  0.0034
 6978TP3      O20945   5.009   4.818   5.710 -0.0553  0.3708  0.7459
 6978TP3     H120946   4.981   4.830   5.620 -1.0897 -2.7747  0.5079
 6978TP3     H220947   5.066   4.741   5.708 -0.1843  0.1469  2.7570
 6979TP3      O20948   5.297   5.146   4.987  0.1373 -0.3167  0.3924
 6979TP3     H120949   5.238   5.218   5.006  1.6143  0.9556  0.3366
 6979TP3     H220950   5.245   5.085   4.935 -0.3553  2.1191 -2.1993
 6980TP3      O20951   0.403   5.966   5.331  0.1687 -0.0936 -0.5847
 6980TP3     H120952   0.313   5.985   5.356  0.1073 -0.0613 -0.8318
 6980TP3     H220953   0.396   5.892   5.270  0.3322 -0.2860 -0.3734
 6981TP3      O20954   5.688   3.927   3.495  0.2186  0.4087  0.0647
 6981TP3     H120955   5.776   3.947   3.529  0.5296  1.8066 -1.4295
 6981TP3     H220956   5.629   3.970   3.557  0.6669  0.9006  0.1661
 6982TP3      O20957   5.547   4.201   3.644  0.2060 -0.3451  0.2289
 6982TP3     H120958   5.481   4.133   3.661 -1.0852  0.7307 -0.3671
 6982TP3     H220959   5.501   4.283   3.660  1.1263  0.4618 -1.1476
 6983TP3      O20960   0.125   4.046   5.185  0.6261 -0.1319 -0.4050
 6983TP3     H120961   0.054   4.109   5.196  0.0540 -0.8178 -0.1086
 6983TP3     H220962   0.105   3.976   5.247  1.8081 -0.1169  0.0268
 6984TP3      O20963   0.361   3.766   5.875 -0.0458  0.5313  0.4584
 6984TP3     H120964   0.429   3.786   5.939 -0.6185 -0.1457  1.3029
 6984TP3     H220965   0.382   3.821   5.800 -0.1467  2.4035  1.7224
 6985TP3      O20966   0.563   3.964   3.750 -0.3752  0.5602 -0.6868
 6985TP3     H120967   0.560   3.899   3.679 -1.2559  0.4980 -0.6047
 6985TP3     H220968   0.644   4.012   3.735 -0.3854  0.3276 -1.5391
 6986TP3      O20969   5.739   4.237   4.124  0.4481 -0.3581  0.7119
 6986TP3     H120970   5.694   4.201   4.048  0.0816  1.6015 -0.0609
 6986TP3     H220971   5.677   4.227   4.196 -0.0241 -0.3658  0.3055
 6987TP3      O20972   5.948   3.617   0.110  0.0410  0.3430 -0.4100
 6987TP3     H120973   5.896   3.539   0.087 -1.1734  1.0880 -0.2722
 6987TP3     H220974   5.908   3.688   0.060  1.5961  0.7769 -1.1050
 6988TP3      O20975   0.172   0.084   5.005 -0.1039 -0.2583 -0.6413
 6988TP3     H120976   0.138   0.075   5.094 -1.3908  1.4232 -0.9063
 6988TP3     H220977   0.099   0.123   4.956  0.7986 -0.5652 -2.2782
 6989TP3      O20978   5.869   4.441   5.589 -0.0472  0.4401  0.3006
 6989TP3     H120979   5.813   4.377   5.546 -2.7414  2.5504  0.3795
 6989TP3     H220980   5.907   4.492   5.518  0.8766 -0.2373  0.2889
 6990TP3      O20981   5.181   5.714   5.348  0.7259 -0.3431 -1.0627
 6990TP3     H120982   5.163   5.660   5.426  2.4723 -2.0999 -1.8087
 6990TP3     H220983   5.103   5.703   5.294 -1.1719  2.0267  0.9023
 6991TP3      O20984   5.874   4.087   5.786  0.6505 -0.0012  0.3920
 6991TP3     H120985   5.874   4.132   5.870 -0.5536  0.8347 -0.0421
 6991TP3     H220986   5.964   4.055   5.776  1.1295  0.9919  1.3978
 6992TP3      O20987   5.817   3.370   0.983 -0.3536 -0.1468 -0.0855
 6992TP3     H120988   5.823   3.439   0.917  0.3388  0.6108  0.7491
 6992TP3     H220989   5.739   3.391   1.033 -1.0594 -0.8990 -0.8315
 6993TP3      O20990   5.885   5.038   5.463 -0.6957 -0.1885 -0.3565
 6993TP3     H120991   5.808   4.982   5.472 -0.4422 -0.2551  2.2548
 6993TP3     H220992   5.950   4.999   5.521  0.9438  0.4909 -1.6586
 6994TP3      O20993   5.153   3.378   5.813  0.2106 -0.6835  0.1416
 6994TP3     H120994   5.141   3.286   5.793  0.2285 -1.0847  1.8598
 6994TP3     H220995   5.065   3.415   5.811  0.3413 -0.3417 -2.1330
 6995TP3      O20996   5.942   3.539   4.875 -0.0572  0.5214 -0.1960
 6995TP3     H120997   6.000   3.591   4.931 -0.0563  0.5311 -0.2056
 6995TP3     H220998   5.854   3.567   4.898 -0.0623  0.4242 -0.1010
 6996TP3      O20999   0.705   4.362   5.826  0.1023 -0.2392  1.0724
 6996TP3     H121000   0.707   4.445   5.777 -2.4281 -0.3989  0.5536
 6996TP3     H221001   0.786   4.318   5.801 -1.0431 -0.3923 -3.3127
 6997TP3      O21002   0.532   5.816   0.415 -0.0543 -0.3679  0.1168
 6997TP3     H121003   0.510   5.726   0.394  1.1060 -0.8558  0.8961
 6997TP3     H221004   0.628   5.820   0.404  0.4916 -0.2993  3.7761
 6998TP3      O21005   5.278   5.761   0.974  0.1747  0.1300 -0.1727
 6998TP3     H121006   5.281   5.677   1.019  0.6076  0.7560  1.0048
 6998TP3     H221007   5.188   5.769   0.944  0.6449 -1.8210 -2.4724
 6999TP3      O21008   5.257   5.580   1.722 -0.3090 -0.3378 -0.1983
 6999TP3     H121009   5.226   5.655   1.671  1.0597 -0.2579 -0.9455
 6999TP3     H221010   5.248   5.505   1.663  1.7211 -0.1740 -0.7749
 7000TP3      O21011   0.120   5.455   1.904  0.0950 -0.1486 -0.5650
 7000TP3     H121012   0.173   5.447   1.983  1.3679 -1.7996 -1.5141
 7000TP3     H221013   0.135   5.373   1.857 -2.5177 -0.2289 -1.3998
 7001TP3      O21014   0.068   5.193   5.756  0.0968 -0.8530 -0.3857
 7001TP3     H121015   0.112   5.271   5.791 -0.2551 -0.9068  0.1924
 7001TP3     H221016   0.097   5.122   5.814  2.5715 -1.7106 -2.4682
 7002TP3      O21017   0.413   5.466   5.635 -0.0913  0.0310 -0.6999
 7002TP3     H121018   0.416   5.518   5.715  0.2528  0.6710 -1.1242
 7002TP3     H221019   0.467   5.389   5.654 -0.8175 -0.3174  0.0208
 7003TP3      O21020   5.554   5.456   0.378  0.3315  0.1168  0.4294
 7003TP3     H121021   5.585   5.370   0.407 -1.9611 -1.0743 -0.4349
 7003TP3     H221022   5.568   5.455   0.283 -0.6732  0.2447  0.2689
 7004TP3      O21023   5.637   5.808   3.525 -0.1764 -0.6092 -0.2289
 7004TP3     H121024   5.562   5.865   3.543  0.7278  0.7714 -0.6220
 7004TP3     H221025   5.647   5.756   3.604 -0.6260  0.2767  0.4368
 7005TP3      O21026   5.852   5.905   2.870  0.1492 -0.1920  0.1827
 7005TP3     H121027   5.906   5.826   2.867 -0.4617 -0.5874 -0.7346
 7005TP3     H221028   5.762   5.873   2.865 -0.0893  0.6106 -2.5711
 7006TP3      O21029   5.782   5.289   3.154 -0.5964  0.4885  0.0661
 7006TP3     H121030   5.806   5.228   3.083 -1.2700  0.5495 -0.2217
 7006TP3     H221031   5.701   5.254   3.189  0.3451 -0.2255  1.6412
 7007TP3      O21032   0.136   0.174   2.454 -0.5440  0.1631 -0.6584
 7007TP3     H121033   0.202   0.162   2.523  0.7992  1.9561 -1.5411
 7007TP3     H221034   0.162   0.111   2.386 -1.6170 -1.3021  0.2282
 7008TP3      O21035   0.349   4.618   3.421  0.4688 -0.6757  0.0646
 7008TP3     H121036   0.392   4.578   3.498  3.1009 -0.5942 -1.2540
 7008TP3     H221037   0.359   4.712   3.434 -1.1868 -0.5603  0.7045
 7009TP3      O21038   0.018   5.689   2.897 -0.4222  0.4922 -0.1011
 7009TP3     H121039   0.048   5.697   2.807 -0.4389  2.4737  0.0099
 7009TP3     H221040   0.088   5.642   2.942  3.0278  5.2456  0.2535
 7010TP3      O21041   0.123   0.326   3.203  0.1187  0.7141 -0.0867
 7010TP3     H121042   0.208   0.284   3.188 -0.0847  0.3548 -0.2609
 7010TP3     H221043   0.138   0.419   3.184  0.5956  0.7349  0.3835
 7011TP3      O21044   5.809   5.691   1.740  0.2302  0.0104  0.4441
 7011TP3     H121045   5.799   5.655   1.652  2.4853 -0.7213  0.4313
 7011TP3     H221046   5.818   5.785   1.726 -1.3604  0.1515  0.1091
 7012TP3      O21047   0.040   0.497   3.854  0.0301  0.2976  0.8515
 7012TP3     H121048   0.057   0.483   3.762  0.5074  0.6797  0.8797
 7012TP3     H221049  -0.045   0.543   3.856 -0.9446 -1.4305  0.7114
 7013TP3      O21050   0.293   0.275   3.983  0.0230 -0.3692 -0.1277
 7013TP3     H121051   0.303   0.356   3.933 -2.6284  0.0041 -0.1778
 7013TP3     H221052   0.253   0.302   4.066 -0.6973 -1.6038 -0.0511
 7014TP3      O21053   5.869   0.319   5.138 -0.0255 -0.0125 -0.1584
 7014TP3     H121054   5.849   0.353   5.225 -0.7868  0.2068 -0.4088
 7014TP3     H221055   5.915   0.236   5.154  0.7938  0.5396  0.4532
 7015TP3      O21056   5.725   5.283   4.838  0.0208  0.4410 -0.4386
 7015TP3     H121057   5.661   5.212   4.847  1.0459 -0.4620 -0.0197
 7015TP3     H221058   5.685   5.357   4.882 -0.8518 -0.0303 -0.4186
 7016TP3      O21059   0.237   0.377   4.769  0.4756 -0.7023 -0.1488
 7016TP3     H121060   0.308   0.438   4.790 -0.2879  0.5843 -1.1637
 7016TP3     H221061   0.281   0.299   4.735  1.4736 -0.8022  1.3079
 7017TP3      O21062   4.961   5.499   3.895 -0.2051  0.2909  0.6284
 7017TP3     H121063   4.969   5.540   3.808  0.3853  0.9139  0.9724
 7017TP3     H221064   4.943   5.572   3.954  1.9841  0.2452  1.4283
 7018TP3      O21065   5.471   0.489   4.347  0.0917  0.0918  0.1249
 7018TP3     H121066   5.410   0.490   4.274  0.5445 -0.8794 -0.2921
 7018TP3     H221067   5.529   0.415   4.328  0.0934 -0.3044  1.5668
 7019TP3      O21068   5.100   5.762   3.514  0.1927  0.1293 -0.0435
 7019TP3     H121069   5.194   5.771   3.503  0.2671 -2.2863 -2.6238
 7019TP3     H221070   5.088   5.673   3.549 -1.1183  0.5225  0.5746
 7020TP3      O21071   0.317   5.704   5.795 -0.6242 -0.2373 -0.2365
 7020TP3     H121072   0.301   5.780   5.852 -0.1539  0.1433 -0.6048
 7020TP3     H221073   0.300   5.736   5.707  0.7892 -0.1950 -0.5205
 7021TP3      O21074   0.559   0.486   5.940  0.1997  0.0135  0.3534
 7021TP3     H121075   0.620   0.430   5.989  1.5770  1.6492  0.6086
 7021TP3     H221076   0.548   0.562   5.996  0.3052  1.0850 -1.0373
 7022TP3      O21077   5.792   0.712   0.558 -0.1014 -0.0044 -0.3273
 7022TP3     H121078   5.816   0.730   0.649 -0.4592  1.1388 -0.4343
 7022TP3     H221079   5.831   0.627   0.539  1.3098  0.4435  0.4212
 7023TP3      O21080   5.069   5.367   0.448 -0.1823  0.2441 -0.0056
 7023TP3     H121081   5.145   5.365   0.391 -0.2733  1.0871 -0.1672
 7023TP3     H221082   5.105   5.380   0.536 -0.1955  2.4944 -0.2754
   6.00000   6.00000   6.00000
