;;
;; Generated by CHARMM-GUI FF-Converter
;;
;; Correspondance:
;; jul316@lehigh.edu or wonpil@lehigh.edu
;;
;; AMBER FF in GROMACS format
;;


[ defaults ]
; nbfunc	comb-rule	gen-pairs	fudgeLJ	fudgeQQ
1	2	yes	0.500000	0.833333

[ atomtypes ]
; name	at.num	mass	charge	ptype	sigma	epsilon	;	sigma_14	epsilon_14
       H     1     1.0080      0.272     A    1.06907846177e-01    6.568880e-02 
      H1     1     1.0080      0.082     A    2.47135304412e-01    6.568880e-02 
      HC     1     1.0080      0.112     A    2.64953278775e-01    6.568880e-02 
      HW     1     1.0080      0.417     A    0.00000000000e+00    0.000000e+00 
       C     6    12.0100      0.597     A    3.39966950842e-01    3.598240e-01 
      CT     6    12.0100     -0.366     A    3.39966950842e-01    4.577296e-01 
      CX     6    12.0100      0.034     A    3.39966950842e-01    4.577296e-01 
       N     7    14.0100     -0.416     A    3.24999852378e-01    7.112800e-01 
       O     8    16.0000     -0.568     A    2.95992190115e-01    8.786400e-01 
      OW     8    16.0000     -0.834     A    3.15075240658e-01    6.359680e-01 

[ bondtypes ]
; i	j	func	b0	Kb
      C      CT     1  1.522000e-01  2.652656e+05
      C      CX     1  1.522000e-01  2.652656e+05
      C       N     1  1.335000e-01  4.100320e+05
      C       O     1  1.229000e-01  4.769760e+05
     CT      H1     1  1.090000e-01  2.845120e+05
     CT      HC     1  1.090000e-01  2.845120e+05
     CT       N     1  1.449000e-01  2.820016e+05
     CX      CT     1  1.526000e-01  2.594080e+05
     CX      H1     1  1.090000e-01  2.845120e+05
     CX       N     1  1.449000e-01  2.820016e+05
      H       N     1  1.010000e-01  3.631712e+05
     HW      HW     1  1.513600e-01  4.627504e+05
     OW      HW     1  9.572000e-02  4.627504e+05

[ pairtypes ]
; i	j	func	sigma1-4	epsilon1-4

[ angletypes ]
; i	j	k	func	th0	Kth	s0	Kub
      C      CT      HC     5  1.0950000e+02  4.1840000e+02  0.0000000e+00  0.0000000e+00
      C      CX      CT     5  1.1110000e+02  5.2718400e+02  0.0000000e+00  0.0000000e+00
      C      CX      H1     5  1.0950000e+02  4.1840000e+02  0.0000000e+00  0.0000000e+00
      C      CX       N     5  1.1010000e+02  5.2718400e+02  0.0000000e+00  0.0000000e+00
      C       N      CT     5  1.2190000e+02  4.1840000e+02  0.0000000e+00  0.0000000e+00
      C       N      CX     5  1.2190000e+02  4.1840000e+02  0.0000000e+00  0.0000000e+00
      C       N       H     5  1.2000000e+02  4.1840000e+02  0.0000000e+00  0.0000000e+00
     CT       C       N     5  1.1660000e+02  5.8576000e+02  0.0000000e+00  0.0000000e+00
     CT       C       O     5  1.2040000e+02  6.6944000e+02  0.0000000e+00  0.0000000e+00
     CT      CX      H1     5  1.0950000e+02  4.1840000e+02  0.0000000e+00  0.0000000e+00
     CT      CX       N     5  1.0970000e+02  6.6944000e+02  0.0000000e+00  0.0000000e+00
     CT       N       H     5  1.1804000e+02  4.1840000e+02  0.0000000e+00  0.0000000e+00
     CX       C       N     5  1.1660000e+02  5.8576000e+02  0.0000000e+00  0.0000000e+00
     CX       C       O     5  1.2040000e+02  6.6944000e+02  0.0000000e+00  0.0000000e+00
     CX      CT      HC     5  1.0950000e+02  4.1840000e+02  0.0000000e+00  0.0000000e+00
     CX       N       H     5  1.1804000e+02  4.1840000e+02  0.0000000e+00  0.0000000e+00
     H1      CT      H1     5  1.0950000e+02  2.9288000e+02  0.0000000e+00  0.0000000e+00
     H1      CT       N     5  1.0950000e+02  4.1840000e+02  0.0000000e+00  0.0000000e+00
     H1      CX       N     5  1.0950000e+02  4.1840000e+02  0.0000000e+00  0.0000000e+00
     HC      CT      HC     5  1.0950000e+02  2.9288000e+02  0.0000000e+00  0.0000000e+00
      N       C       O     5  1.2290000e+02  6.6944000e+02  0.0000000e+00  0.0000000e+00

[ dihedraltypes ]
; i	j	k	l	func	phi0	Kphi	mult
      C       N      CX       C     9  0.000000e+00  0.000000e+00      4
      C       N      CX       C     9  0.000000e+00  1.757280e+00      3
      C       N      CX       C     9  0.000000e+00  1.129680e+00      2
      C       N      CX       C     9  0.000000e+00  0.000000e+00      1
     CT      CX       C       N     9  0.000000e+00  0.000000e+00      4
     CT      CX       C       N     9  0.000000e+00  1.673600e+00      3
     CT      CX       C       N     9  0.000000e+00  8.368000e-01      2
     CT      CX       C       N     9  0.000000e+00  8.368000e-01      1
     CT      CX       N       C     9  0.000000e+00  0.000000e+00      4
     CT      CX       N       C     9  0.000000e+00  3.347200e+00      3
     CT      CX       N       C     9  0.000000e+00  7.531200e+00      2
     CT      CX       N       C     9  0.000000e+00  8.368000e+00      1
      H       N       C       O     9  1.800000e+02  1.046000e+01      2
      H       N       C       O     9  0.000000e+00  8.368000e+00      1
     H1      CX       C       O     9  0.000000e+00  3.347200e+00      1
     H1      CX       C       O     9  0.000000e+00  0.000000e+00      2
     H1      CX       C       O     9  1.800000e+02  3.347200e-01      3
     HC      CT       C       O     9  0.000000e+00  3.347200e+00      1
     HC      CT       C       O     9  0.000000e+00  0.000000e+00      2
     HC      CT       C       O     9  1.800000e+02  3.347200e-01      3
      N      CX       C       N     9  0.000000e+00  0.000000e+00      4
      N      CX       C       N     9  1.800000e+02  2.301200e+00      3
      N      CX       C       N     9  1.800000e+02  6.610720e+00      2
      N      CX       C       N     9  1.800000e+02  1.882800e+00      1
      X       C      CT       X     9  0.000000e+00  0.000000e+00      2
      X       C      CX       X     9  0.000000e+00  0.000000e+00      2
      X       C       N       X     9  1.800000e+02  1.046000e+01      2
      X      CT      CX       X     9  0.000000e+00  6.508444e-01      3
      X      CT       N       X     9  0.000000e+00  0.000000e+00      2
      X      CX       N       X     9  0.000000e+00  0.000000e+00      2

[ dihedraltypes ]
; i	j	k	l	func	q0	Kq
      C      CT       N       H     4  1.800000e+02  4.602400e+00      2
      C      CX       N       H     4  1.800000e+02  4.602400e+00      2
      X       X       C       O     4  1.800000e+02  4.393200e+01      2
