;;
;; Generated by CHARMM-GUI FF-Converter
;;
;; Correspondance:
;; jul316@lehigh.edu or wonpil@lehigh.edu
;;
;; GROMACS topology file for PROA
;;


[ moleculetype ]
; name	nrexcl
PROA	     3

[ atoms ]
; nr	type	resnr	residu	atom	cgnr	charge	mass
     1         HC      1      ACE     H1      1     0.112300     1.0080   ; qtot  0.112
     2         CT      1      ACE    CH3      2    -0.366200    12.0100   ; qtot -0.254
     3         HC      1      ACE     H2      3     0.112300     1.0080   ; qtot -0.142
     4         HC      1      ACE     H3      4     0.112300     1.0080   ; qtot -0.029
     5          C      1      ACE      C      5     0.597200    12.0100   ; qtot  0.568
     6          O      1      ACE      O      6    -0.567900    16.0000   ; qtot  0.000
     7          N      2      ALA      N      7    -0.415700    14.0100   ; qtot -0.416
     8          H      2      ALA      H      8     0.271900     1.0080   ; qtot -0.144
     9         CX      2      ALA     CA      9     0.033700    12.0100   ; qtot -0.110
    10         H1      2      ALA     HA     10     0.082300     1.0080   ; qtot -0.028
    11         CT      2      ALA     CB     11    -0.182500    12.0100   ; qtot -0.210
    12         HC      2      ALA    HB1     12     0.060300     1.0080   ; qtot -0.150
    13         HC      2      ALA    HB2     13     0.060300     1.0080   ; qtot -0.090
    14         HC      2      ALA    HB3     14     0.060300     1.0080   ; qtot -0.029
    15          C      2      ALA      C     15     0.597300    12.0100   ; qtot  0.568
    16          O      2      ALA      O     16    -0.567900    16.0000   ; qtot  0.000
    17          N      3      NME      N     17    -0.415700    14.0100   ; qtot -0.416
    18          H      3      NME      H     18     0.271900     1.0080   ; qtot -0.144
    19         CT      3      NME      C     19    -0.149000    12.0100   ; qtot -0.293
    20         H1      3      NME     H1     20     0.097600     1.0080   ; qtot -0.195
    21         H1      3      NME     H2     21     0.097600     1.0080   ; qtot -0.098
    22         H1      3      NME     H3     22     0.097600     1.0080   ; qtot -0.000

[ bonds ]
; ai	aj	funct	b0	Kb
    1     2     1
    2     3     1
    2     4     1
    2     5     1
    5     6     1
    5     7     1
    7     8     1
    7     9     1
    9    10     1
    9    11     1
    9    15     1
   11    12     1
   11    13     1
   11    14     1
   15    16     1
   15    17     1
   17    18     1
   17    19     1
   19    20     1
   19    21     1
   19    22     1

[ pairs ]
; ai	aj	funct	c6	c12 or
; ai	aj	funct	fudgeQQ	q1	q2	c6	c12
    1     6     1
    1     7     1
    2     8     1
    2     9     1
    3     6     1
    3     7     1
    4     6     1
    4     7     1
    5    10     1
    5    11     1
    5    15     1
    6     8     1
    6     9     1
    7    12     1
    7    13     1
    7    14     1
    7    16     1
    7    17     1
    8    10     1
    8    11     1
    8    15     1
    9    18     1
    9    19     1
   10    12     1
   10    13     1
   10    14     1
   10    16     1
   10    17     1
   11    16     1
   11    17     1
   12    15     1
   13    15     1
   14    15     1
   15    20     1
   15    21     1
   15    22     1
   16    18     1
   16    19     1
   18    20     1
   18    21     1
   18    22     1

[ angles ] 
; ai	aj	ak	funct	th0	cth	S0	Kub
    1     2     3     5
    1     2     4     5
    1     2     5     5
    3     2     4     5
    3     2     5     5
    4     2     5     5
    7     5     2     5
    7     5     6     5
    2     5     6     5
    5     7     8     5
    5     7     9     5
    8     7     9     5
    7     9    10     5
    7     9    11     5
    7     9    15     5
   10     9    11     5
   10     9    15     5
   11     9    15     5
    9    11    12     5
    9    11    13     5
    9    11    14     5
   12    11    13     5
   12    11    14     5
   13    11    14     5
   17    15     9     5
   17    15    16     5
    9    15    16     5
   15    17    18     5
   15    17    19     5
   18    17    19     5
   17    19    20     5
   17    19    21     5
   17    19    22     5
   20    19    21     5
   20    19    22     5
   21    19    22     5

[ dihedrals ]
; ai	aj	ak	al	funct	phi0	cp	mult
    1     2     5     6     9
    1     2     5     7     9
    3     2     5     6     9
    3     2     5     7     9
    4     2     5     6     9
    4     2     5     7     9
    8     7     5     2     9
    8     7     5     6     9
    9     7     5     2     9
    9     7     5     6     9
    5     7     9    10     9
    5     7     9    11     9
    5     7     9    15     9
    8     7     9    10     9
    8     7     9    11     9
    8     7     9    15     9
    7     9    11    12     9
    7     9    11    13     9
    7     9    11    14     9
   10     9    11    12     9
   10     9    11    13     9
   10     9    11    14     9
    7     9    15    16     9
    7     9    15    17     9
   10     9    15    16     9
   10     9    15    17     9
   11     9    15    16     9
   11     9    15    17     9
   12    11     9    15     9
   13    11     9    15     9
   14    11     9    15     9
   18    17    15     9     9
   18    17    15    16     9
   19    17    15     9     9
   19    17    15    16     9
   15    17    19    20     9
   15    17    19    21     9
   15    17    19    22     9
   18    17    19    20     9
   18    17    19    21     9
   18    17    19    22     9

[ dihedrals ]
; ai	aj	ak	al	funct	q0	cq
    2     7     5     6     4
    5     9     7     8     4
    9    17    15    16     4
   15    19    17    18     4

#ifdef POSRES
[ position_restraints ]
    2     1    POSRES_FC_SC    POSRES_FC_SC    POSRES_FC_SC   
    5     1    POSRES_FC_BB    POSRES_FC_BB    POSRES_FC_BB   
    6     1    POSRES_FC_BB    POSRES_FC_BB    POSRES_FC_BB   
    7     1    POSRES_FC_BB    POSRES_FC_BB    POSRES_FC_BB   
    9     1    POSRES_FC_BB    POSRES_FC_BB    POSRES_FC_BB   
   11     1    POSRES_FC_SC    POSRES_FC_SC    POSRES_FC_SC   
   15     1    POSRES_FC_BB    POSRES_FC_BB    POSRES_FC_BB   
   16     1    POSRES_FC_BB    POSRES_FC_BB    POSRES_FC_BB   
   17     1    POSRES_FC_BB    POSRES_FC_BB    POSRES_FC_BB   
   19     1    POSRES_FC_BB    POSRES_FC_BB    POSRES_FC_BB   
#endif
